/*--------------------------------*- C++ -*----------------------------------*\
| =========                 |                                                 |
| \\      /  F ield         | OpenFOAM: The Open Source CFD Toolbox           |
|  \\    /   O peration     | Version:  5.x                                   |
|   \\  /    A nd           | Web:      www.OpenFOAM.org                      |
|    \\/     M anipulation  |                                                 |
\*---------------------------------------------------------------------------*/
FoamFile
{
    version     2.0;
    format      ascii;
    class       volScalarField;
    location    "0";
    object      error;
}
// * * * * * * * * * * * * * * * * * * * * * * * * * * * * * * * * * * * * * //

dimensions      [0 0 0 0 0 0 0];

internalField   nonuniform List<scalar> 
2000
(
0.0502452
0.0503174
0.0504317
0.0505944
0.0508156
0.0511055
0.0514681
0.0518971
0.0523704
0.0528626
0.0511576
0.0512444
0.0513806
0.0515634
0.051792
0.052063
0.0523705
0.0527087
0.0530861
0.0535612
0.0520231
0.0521224
0.0522745
0.0524707
0.0527011
0.052952
0.0532034
0.0534239
0.0535635
0.0535324
0.0528369
0.0529467
0.053114
0.053326
0.053569
0.0538264
0.0540756
0.054285
0.05441
0.0543867
0.0535924
0.0537125
0.0538969
0.0541318
0.054404
0.0547001
0.0550054
0.0553043
0.055583
0.0558355
0.0542805
0.0544112
0.0546145
0.0548776
0.0551902
0.0555437
0.0559324
0.0563539
0.0568125
0.0573232
0.0548914
0.0550321
0.0552541
0.055546
0.0559001
0.0563119
0.0567812
0.0573114
0.0579121
0.0585985
0.0554165
0.055565
0.055802
0.0561173
0.056505
0.056963
0.057493
0.0580998
0.0587915
0.0595786
0.0558482
0.0560008
0.0562465
0.0565754
0.0569826
0.0574676
0.0580318
0.0586797
0.0594167
0.0602496
0.0561819
0.0563336
0.0565793
0.0569093
0.0573194
0.0578091
0.0583801
0.0590356
0.0597785
0.0606177
0.0419206
0.0422592
0.0420359
0.0415479
0.0409089
0.0401712
0.0393692
0.0385314
0.0376888
0.0368769
0.0431711
0.0427586
0.0423518
0.0418098
0.0411481
0.0403915
0.0395623
0.0386791
0.0377609
0.0368235
0.0436865
0.043323
0.0428644
0.0422956
0.0416214
0.0408501
0.0399905
0.0390511
0.0380448
0.0369912
0.0442262
0.043942
0.0435184
0.0429768
0.042328
0.0415735
0.0407094
0.0397284
0.0386261
0.0374063
0.0448728
0.0446577
0.0443049
0.043838
0.0432686
0.0425926
0.041793
0.040841
0.0397011
0.0383372
0.0456302
0.0454782
0.0452163
0.0448637
0.0444325
0.0439195
0.0433032
0.0425382
0.0415522
0.0402409
0.0464825
0.0463897
0.0462249
0.046012
0.0457684
0.045504
0.0452176
0.0448841
0.0444379
0.0437368
0.047402
0.0473652
0.0472948
0.0472214
0.0471756
0.0471927
0.0473207
0.0476239
0.0481853
0.0490811
0.0483542
0.0483657
0.0483786
0.0484196
0.0485278
0.0487523
0.0491739
0.0499421
0.0513654
0.0541312
0.0493069
0.0493561
0.0494312
0.0495502
0.0497383
0.0500251
0.0504355
0.0509746
0.0515722
0.0519495
0.0352925
0.0348292
0.0341526
0.0332666
0.0321888
0.0309457
0.0295681
0.0280848
0.0265188
0.0248835
0.0231828
0.0214114
0.0195572
0.0176036
0.0155316
0.0133218
0.0109578
0.00843248
0.00577645
0.0032415
0.0353328
0.0348741
0.0342151
0.0333477
0.0322975
0.0310966
0.0297787
0.0283726
0.0268983
0.0253646
0.0237709
0.0221103
0.0203724
0.0185476
0.0166307
0.0146266
0.0125613
0.0105077
0.00864605
0.00738761
0.0359373
0.0355102
0.0348101
0.0338948
0.0328253
0.0316505
0.0304083
0.0291212
0.0277964
0.0264288
0.0250074
0.023521
0.0219628
0.0203341
0.0186483
0.016937
0.0152613
0.01373
0.012524
0.0119091
0.0371547
0.0366651
0.0358144
0.0347858
0.0336776
0.0325553
0.0314473
0.0303497
0.029239
0.0280862
0.0268679
0.0255724
0.0242015
0.0227721
0.0213165
0.0198865
0.0185582
0.0174407
0.0166784
0.0164443
0.0393178
0.0385886
0.037376
0.036155
0.0350315
0.0340437
0.0331599
0.0323115
0.0314291
0.0304638
0.0293942
0.0282239
0.0269754
0.0256863
0.0244063
0.0231987
0.0221418
0.0213325
0.0208822
0.0209118
0.0427177
0.0415188
0.0397224
0.0383584
0.0373906
0.0366937
0.0360914
0.0354349
0.0346393
0.0336815
0.0325811
0.0313802
0.0301309
0.0288887
0.0277119
0.0266631
0.0258119
0.0252372
0.0250231
0.0252582
0.0474679
0.0456515
0.0434226
0.0423521
0.0418481
0.0414565
0.0408864
0.0400316
0.0389131
0.037609
0.0362083
0.0347905
0.03342
0.03215
0.0310272
0.0300988
0.0294155
0.0290351
0.0290192
0.0294352
0.0532012
0.0514234
0.0500511
0.0499273
0.0496524
0.0488024
0.047383
0.0455849
0.0436179
0.0416446
0.0397708
0.0380583
0.0365414
0.0352411
0.0341754
0.0333658
0.0328416
0.0326414
0.0328105
0.033403
0.0580636
0.0600385
0.0615866
0.0613764
0.0594666
0.0566444
0.0535002
0.0503989
0.0475319
0.0449813
0.0427688
0.0408881
0.0393228
0.038058
0.037086
0.0364098
0.0360448
0.0360184
0.0363668
0.0371364
0.0528267
0.0583928
0.0603953
0.0590369
0.0569619
0.0547329
0.052479
0.0502825
0.0482037
0.0462845
0.0445524
0.0430265
0.0417217
0.0406529
0.0398385
0.0393023
0.0390746
0.0391918
0.0396939
0.0406247
0.0508748
0.0501579
0.0473597
0.044751
0.0435188
0.0432461
0.0433541
0.0434964
0.0435228
0.0433948
0.0431303
0.0427732
0.0423796
0.0420105
0.0417292
0.0415993
0.0416839
0.0420439
0.0427364
0.0438141
0.0552734
0.0522231
0.0496394
0.0475741
0.0462784
0.0456179
0.0453228
0.045172
0.0450349
0.0448547
0.044623
0.0443598
0.0441017
0.0438942
0.0437876
0.0438343
0.0440875
0.0445997
0.045421
0.0465999
0.0572683
0.0540225
0.0516236
0.0498079
0.0485392
0.0477242
0.0472187
0.0468874
0.046635
0.0464095
0.0461939
0.0459953
0.0458373
0.0457534
0.0457831
0.0459694
0.0463571
0.0469911
0.0479157
0.0491745
0.057585
0.0551367
0.053171
0.0516191
0.0504479
0.0496034
0.0490072
0.0485796
0.0482577
0.0480024
0.0477973
0.0476448
0.0475603
0.0475692
0.0477028
0.0479966
0.0484881
0.0492162
0.0502196
0.0515373
0.0574868
0.0558822
0.0544059
0.0531403
0.0521101
0.0513042
0.0506884
0.0502208
0.0498644
0.0495941
0.0493985
0.0492791
0.0492478
0.0493245
0.0495346
0.0499078
0.0504759
0.0512724
0.0523315
0.0536879
0.0575857
0.0565736
0.0555017
0.0544953
0.0536135
0.0528758
0.0522777
0.0518032
0.0514346
0.0511593
0.0509719
0.0508755
0.0508806
0.0510041
0.0512672
0.0516952
0.0523154
0.0531571
0.0542503
0.0556261
0.058031
0.0573747
0.0565861
0.0557813
0.0550284
0.0543619
0.053795
0.0533285
0.0529586
0.0526822
0.0524998
0.0524167
0.0524435
0.0525952
0.0528905
0.0533514
0.0540017
0.0548671
0.0559745
0.0573515
0.058821
0.0583477
0.0577317
0.0570638
0.0564062
0.0557976
0.0552596
0.054803
0.0544331
0.0541538
0.0539702
0.05389
0.0539243
0.0540873
0.0543959
0.0548698
0.0555301
0.0563998
0.0575028
0.0588641
0.0599059
0.0595012
0.0589711
0.0583806
0.0577809
0.0572083
0.0566873
0.0562336
0.055858
0.055569
0.0553751
0.0552862
0.0553138
0.0554718
0.0557761
0.0562445
0.0568964
0.0577523
0.0588339
0.0601638
0.0612285
0.06082
0.0603126
0.0597502
0.0591726
0.0586112
0.0580898
0.0576263
0.0572342
0.0569249
0.0567092
0.0565984
0.0566047
0.0567418
0.0570249
0.0574706
0.0580967
0.058922
0.0599665
0.0612505
0.0627381
0.0622818
0.0617524
0.061179
0.0605916
0.0600163
0.059475
0.0589855
0.0585628
0.0582198
0.0579687
0.0578217
0.0577914
0.0578917
0.0581371
0.0585435
0.0591274
0.0599065
0.060899
0.0621239
0.0643958
0.0638648
0.0632821
0.062667
0.0620421
0.0614291
0.0608474
0.0603143
0.0598448
0.0594527
0.0591508
0.0589521
0.0588696
0.0589169
0.0591084
0.0594593
0.0599853
0.0607032
0.06163
0.0627835
0.0661747
0.0655519
0.0648931
0.0642117
0.0635254
0.0628523
0.0622099
0.0616143
0.0610805
0.0606224
0.0602534
0.0599866
0.0598354
0.0598134
0.0599348
0.0602143
0.0606673
0.0613096
0.0621577
0.0632283
0.0680587
0.0673317
0.0665788
0.0658104
0.0650412
0.0642871
0.0635637
0.0628865
0.06227
0.0617282
0.0612746
0.0609227
0.0606859
0.0605779
0.0606129
0.0608053
0.0611703
0.0617232
0.06248
0.063457
0.0700407
0.0691984
0.0683356
0.0674617
0.0665898
0.0657344
0.0649101
0.0641317
0.0634135
0.0627694
0.0622132
0.0617583
0.0614184
0.0612074
0.0611395
0.0612291
0.0614912
0.0619411
0.0625946
0.0634676
0.0721208
0.0711515
0.0701636
0.0691662
0.0681723
0.0671956
0.0662504
0.065351
0.0645115
0.0637459
0.0630681
0.0624917
0.0620308
0.0616994
0.0615117
0.0614825
0.0616269
0.0619604
0.0624986
0.0632577
0.0743047
0.0731951
0.0720658
0.0709268
0.0697914
0.0686733
0.0675867
0.0665458
0.0655648
0.0646578
0.0638389
0.063122
0.0625215
0.0620516
0.061727
0.0615629
0.0615745
0.0617778
0.0621889
0.0628243
0.0766027
0.075337
0.0740486
0.0727488
0.0714516
0.0701713
0.0689221
0.0677186
0.0665751
0.0655061
0.0645259
0.0636488
0.0628894
0.0622626
0.0617834
0.0614675
0.061331
0.0613902
0.0616621
0.0621637
0.0790283
0.0775889
0.0761215
0.0746399
0.0731594
0.0716949
0.0702611
0.0688731
0.0675455
0.066293
0.0651304
0.0640726
0.0631344
0.0623314
0.0616793
0.0611944
0.0608936
0.0607943
0.0609145
0.0612721
0.0816055
0.0799659
0.0782961
0.0766099
0.0749232
0.0732515
0.0716101
0.0700145
0.06848
0.0670218
0.0656551
0.0643951
0.0632575
0.0622583
0.0614141
0.0607421
0.0602603
0.0599873
0.0599424
0.0601451
0.0607905
0.0606562
0.0604168
0.0600315
0.0594089
0.0584031
0.0568197
0.054479
0.0515049
0.0491674
0.0619954
0.061894
0.0617677
0.0617165
0.0618519
0.0622424
0.0627277
0.0624449
0.0601331
0.0568693
0.0631955
0.0631763
0.0631772
0.0632621
0.063443
0.0635613
0.0631102
0.0613721
0.0592429
0.058214
0.0643575
0.0643872
0.0644152
0.064403
0.0642017
0.0634905
0.0618761
0.0595424
0.0580089
0.057755
0.065451
0.0654674
0.065396
0.0651122
0.0643981
0.0630125
0.0609665
0.0589231
0.0577366
0.0572524
0.0664797
0.066438
0.0662023
0.0656235
0.0645296
0.0628716
0.060936
0.0593028
0.0581629
0.0572269
0.067473
0.0673595
0.0669618
0.066164
0.064896
0.0632678
0.061619
0.0602579
0.0590295
0.057708
0.0684776
0.0683029
0.0677866
0.0668753
0.065598
0.0641376
0.0627566
0.0615326
0.060196
0.0586194
0.0695394
0.0693277
0.06875
0.0678166
0.0666228
0.0653545
0.0641654
0.0629974
0.0615801
0.0598656
0.0707002
0.0704775
0.069889
0.068994
0.067918
0.0668137
0.0657442
0.0645924
0.0631305
0.0613622
0.0719896
0.0717779
0.0712154
0.0703899
0.0694302
0.0684466
0.0674432
0.0662903
0.0648127
0.0630433
0.0734294
0.0732432
0.0727276
0.0719808
0.0711193
0.0702158
0.0692427
0.0680815
0.0666059
0.0648629
0.075032
0.074879
0.0744186
0.0737467
0.0729606
0.0721046
0.0711387
0.0699652
0.0684989
0.0667923
0.0768061
0.0766877
0.076282
0.0756742
0.0749416
0.0741091
0.0731358
0.0719466
0.0704891
0.0688169
0.0787566
0.0786706
0.0783139
0.0777572
0.0770597
0.0762339
0.0752434
0.0740347
0.0725804
0.0709329
0.0808888
0.0808305
0.0805143
0.0799958
0.0793186
0.0784878
0.077474
0.0762415
0.0747815
0.0731446
0.0832083
0.0831719
0.0828871
0.0823952
0.0817273
0.0808839
0.0798425
0.0785815
0.0771055
0.0754627
0.0857229
0.0857025
0.0854399
0.0849645
0.0842978
0.0834374
0.0823658
0.0810716
0.0795681
0.0779017
0.088443
0.0884328
0.0881836
0.0877161
0.0870454
0.0861658
0.085063
0.0837311
0.0821881
0.0804796
0.0913818
0.091376
0.0911312
0.0906669
0.0899933
0.0891006
0.0879726
0.0866027
0.0850081
0.0832326
0.0569477
0.0566706
0.0563624
0.0560774
0.055833
0.0556358
0.0554825
0.0553673
0.0552851
0.0552306
0.0566299
0.0564693
0.0563422
0.0562112
0.0560717
0.0559338
0.0558063
0.0556967
0.0556095
0.0555485
0.0558283
0.0561855
0.0563274
0.0563467
0.0562925
0.0561995
0.0560921
0.0559878
0.055899
0.0558345
0.0560148
0.0563925
0.0565642
0.0566055
0.0565635
0.0564741
0.056364
0.0562534
0.0561573
0.0560854
0.0570075
0.0570743
0.0570699
0.0570067
0.0568991
0.0567654
0.0566235
0.056489
0.0563759
0.0562945
0.0581767
0.0579261
0.0576982
0.0574793
0.0572636
0.0570544
0.0568592
0.0566876
0.0565498
0.0564554
0.0592123
0.058723
0.0583014
0.0579312
0.0576011
0.057307
0.0570501
0.056835
0.0566685
0.0565593
0.0599969
0.0593462
0.0587804
0.0582877
0.0578582
0.0574865
0.0571711
0.0569135
0.0567188
0.0565942
0.0604957
0.0597421
0.0590786
0.0584984
0.0579945
0.057562
0.057199
0.0569062
0.0566869
0.0565491
0.0606998
0.0598862
0.0591672
0.058534
0.0579831
0.0575109
0.057116
0.056798
0.0565617
0.0564148
0.0503511
0.0504197
0.0505819
0.0508187
0.051085
0.0513513
0.0515858
0.0517415
0.0517036
0.0510915
0.0499763
0.050209
0.0504857
0.0508
0.0511195
0.0514232
0.051689
0.0518876
0.0519824
0.0521207
0.0495071
0.0499406
0.0503807
0.0508137
0.0512131
0.0515685
0.0518691
0.0521041
0.0522693
0.0524427
0.0490012
0.04973
0.0503783
0.0509448
0.0514232
0.0518197
0.0521399
0.052386
0.0525625
0.0527016
0.0487592
0.0498144
0.0506501
0.0513057
0.0518132
0.0522061
0.0525074
0.0527318
0.0528878
0.0529923
0.0493177
0.050549
0.0514035
0.0520027
0.0524298
0.052742
0.0529738
0.0531426
0.0532573
0.0533274
0.0514483
0.0523024
0.0527793
0.0530675
0.0532606
0.0534046
0.0535177
0.053605
0.0536652
0.0536996
0.0556751
0.0550457
0.0546023
0.0543319
0.0541846
0.0541157
0.0540923
0.0540906
0.0540935
0.0540949
0.0600535
0.0574252
0.0560912
0.0553799
0.0549848
0.0547616
0.0546354
0.0545619
0.0545189
0.0544913
0.0573433
0.0568823
0.0563194
0.0558492
0.055502
0.0552609
0.0550977
0.0549895
0.0549195
0.054876
0.0634248
0.0594418
0.0582076
0.05709
0.056079
0.0551696
0.0543598
0.0536506
0.0530439
0.0525408
0.0521393
0.051832
0.0516035
0.0514299
0.0512782
0.0511101
0.0508867
0.0505741
0.0501527
0.0496039
0.0643714
0.0592869
0.0580877
0.0569973
0.0560048
0.0551035
0.0542898
0.0535635
0.0529266
0.0523821
0.0519325
0.0515771
0.0513083
0.0511094
0.0509518
0.0507966
0.0505993
0.0503162
0.0499117
0.0493806
0.065946
0.0589871
0.0578638
0.056839
0.0559003
0.0550382
0.0542454
0.0535182
0.0528559
0.0522627
0.0517463
0.051318
0.0509874
0.0507573
0.0506163
0.0505329
0.050456
0.0503177
0.0500367
0.0495041
0.0676201
0.0585228
0.0575095
0.0565877
0.0557452
0.0549699
0.0542492
0.0535714
0.0529273
0.052314
0.0517369
0.0512142
0.050775
0.0504551
0.050283
0.0502618
0.0503522
0.0504659
0.0504788
0.0500653
0.0688384
0.0578775
0.0569916
0.0561994
0.0554936
0.0548634
0.0542926
0.0537608
0.0532446
0.052723
0.0521821
0.0516253
0.0510817
0.0506126
0.0503047
0.0502437
0.0504698
0.0509308
0.0515077
0.051406
0.0691447
0.0570405
0.0562698
0.0556038
0.0550489
0.0546041
0.0542575
0.0539865
0.0537577
0.0535297
0.0532564
0.0528984
0.0524374
0.0519036
0.0513994
0.0511067
0.051244
0.0519637
0.0533391
0.0537791
0.0682432
0.0560258
0.0553206
0.0547322
0.054295
0.0540277
0.0539314
0.0539929
0.0541844
0.0544632
0.0547667
0.0550142
0.0551112
0.0549757
0.0545888
0.0540755
0.0537759
0.0542137
0.0561346
0.0572268
0.0660061
0.0548956
0.054159
0.0535526
0.0531592
0.0530141
0.053127
0.0534981
0.0541197
0.0549756
0.056031
0.0572216
0.0584356
0.0595045
0.060211
0.0603605
0.0599535
0.059432
0.0603729
0.061399
0.0624547
0.0538049
0.0528194
0.0520672
0.0516576
0.0515913
0.0518557
0.0524479
0.0533754
0.0546535
0.0562973
0.0583125
0.0606748
0.0633004
0.0659958
0.0683941
0.069901
0.0696687
0.0675432
0.0647338
0.0577781
0.0531844
0.0511762
0.0501961
0.049807
0.0498279
0.0501738
0.0508021
0.0516897
0.052824
0.0541949
0.0557903
0.0575892
0.059557
0.0616379
0.063747
0.0657297
0.0668987
0.0643094
0.0579482
0.051492
0.0498761
0.048171
0.0472754
0.0468401
0.0466904
0.0467199
0.0468525
0.0470276
0.0471943
0.0473121
0.047356
0.0473311
0.0473004
0.047434
0.0480718
0.0497206
0.0526141
0.055317
0.0557549
0.0461296
0.0457154
0.0451459
0.0448089
0.0447258
0.044844
0.0451035
0.045451
0.0458415
0.0462393
0.0466202
0.0469783
0.0473358
0.0477601
0.0483822
0.0494029
0.0510387
0.0533451
0.0560239
0.0591539
0.0421473
0.0421192
0.0421106
0.0422344
0.0425158
0.0429356
0.0434594
0.0440511
0.044679
0.045319
0.0459581
0.0465992
0.0472675
0.0480183
0.0489416
0.0501551
0.0517714
0.0538476
0.056403
0.0597289
0.0385769
0.0387999
0.0391632
0.039663
0.0402877
0.0410148
0.0418168
0.0426664
0.0435405
0.0444231
0.0453072
0.0461986
0.0471192
0.0481093
0.0492271
0.0505403
0.0521089
0.0539662
0.0561301
0.0586556
0.0351383
0.0356194
0.0363046
0.0371419
0.0380923
0.0391233
0.0402062
0.0413173
0.0424383
0.0435574
0.0446709
0.0457847
0.046915
0.0480888
0.0493411
0.0507073
0.0522118
0.0538542
0.0555969
0.0573433
0.031751
0.0325249
0.0335319
0.0346976
0.0359667
0.0372976
0.0386595
0.0400297
0.0413926
0.0427391
0.044067
0.0453807
0.0466915
0.048016
0.0493726
0.0507761
0.0522273
0.0537016
0.0551347
0.0563945
0.0284063
0.0295133
0.0308612
0.0323611
0.0339477
0.0355749
0.0372106
0.0388335
0.0404299
0.041993
0.043521
0.0450175
0.0464894
0.0479459
0.0493951
0.0508388
0.0522654
0.0536412
0.0548982
0.0559218
0.0251306
0.0266145
0.0283287
0.030173
0.0320776
0.0339957
0.0358968
0.0377621
0.0395808
0.0413478
0.0430626
0.0447277
0.0463475
0.0479266
0.0494668
0.0509633
0.0523999
0.0537425
0.0549343
0.0558897
0.0219811
0.0238889
0.0259939
0.0281897
0.0304079
0.0326061
0.034759
0.036852
0.038878
0.0408345
0.0427221
0.0445433
0.0463012
0.0479977
0.0496316
0.0511956
0.0526736
0.0540373
0.0552429
0.0562334
0.0190539
0.0214298
0.0239396
0.0264816
0.028998
0.0314565
0.0338401
0.0361405
0.0383548
0.0404836
0.042529
0.0444941
0.0463812
0.0481915
0.0499224
0.051567
0.0531115
0.0545337
0.0558042
0.056887
0.0165059
0.0193716
0.0222727
0.0251324
0.0279137
0.0305997
0.0331836
0.0356643
0.0380433
0.0403241
0.0425106
0.0446063
0.0466137
0.0485336
0.0503637
0.0520981
0.0537261
0.0552326
0.056598
0.0578023
0.0145746
0.0178852
0.0211139
0.0242287
0.0272196
0.0300856
0.0328298
0.0354569
0.0379725
0.0403822
0.0426909
0.0449028
0.0470205
0.0490448
0.050974
0.0528035
0.0545258
0.0561306
0.0576067
0.0589434
0.0135607
0.0171504
0.0205771
0.0238476
0.0269708
0.0299559
0.0328116
0.035546
0.0381664
0.0406793
0.04309
0.0454026
0.0476195
0.0497416
0.0517676
0.0536941
0.055516
0.0572269
0.0588202
0.0602913
0.0136951
0.0172877
0.0207341
0.0240365
0.0272017
0.0302375
0.0331515
0.0359511
0.0386427
0.041232
0.0437234
0.0461204
0.0484249
0.0506372
0.0527561
0.0547791
0.0567023
0.0585215
0.0602333
0.0618357
0.0149636
0.0182958
0.0215889
0.0248021
0.0279202
0.0309389
0.0338586
0.0366816
0.0394112
0.0420504
0.0446018
0.0470673
0.0494474
0.0517418
0.0539488
0.056066
0.0580901
0.0600181
0.0618473
0.0635768
0.0171232
0.0200548
0.0230773
0.0261083
0.029106
0.0320494
0.034928
0.0377369
0.040474
0.0431388
0.0457308
0.0482497
0.0506944
0.0530632
0.0553535
0.0575623
0.0596862
0.0617218
0.0636667
0.0655191
0.0198865
0.0223932
0.0250949
0.0278896
0.0307171
0.0335419
0.0363425
0.0391064
0.0418256
0.0444951
0.0471111
0.0496706
0.0521703
0.0546068
0.0569763
0.0592745
0.0614972
0.0636403
0.0656999
0.0676731
0.0230317
0.0251489
0.0275279
0.0300672
0.0326988
0.0353781
0.0380757
0.0407721
0.043454
0.0461121
0.0487392
0.0513292
0.0538767
0.0563761
0.0588221
0.0612088
0.0635305
0.0657818
0.0679571
0.0700511
0.0264126
0.0281935
0.0302741
0.0325626
0.0349919
0.037514
0.0400948
0.0427101
0.0453423
0.0479783
0.0506077
0.0532217
0.0558126
0.0583726
0.0608945
0.0633707
0.0657938
0.0681565
0.070451
0.0726685
0.0299349
0.0314334
0.0332498
0.0353059
0.0375402
0.0399052
0.0423655
0.0448941
0.0474708
0.0500795
0.0527072
0.0553428
0.0579761
0.0605975
0.0631976
0.065767
0.0682964
0.0707763
0.0731976
0.0755518
0.0525133
0.0544489
0.0569623
0.0585949
0.05962
0.0602268
0.0605696
0.0607558
0.0608435
0.0608501
0.0599549
0.0626793
0.0645149
0.0641147
0.0630972
0.0623597
0.0620125
0.0619369
0.0619814
0.0620219
0.0602857
0.0606929
0.0626639
0.0640351
0.0641017
0.0637086
0.063368
0.0632069
0.063178
0.0631932
0.0588971
0.0584831
0.0599401
0.0622114
0.0636603
0.0642168
0.064329
0.0643184
0.0643124
0.0643295
0.0575316
0.0574203
0.0585119
0.0606644
0.0627524
0.0641313
0.0648501
0.0651753
0.065321
0.0653995
0.056658
0.0571583
0.0582219
0.0600407
0.0621668
0.0639589
0.0651614
0.0658548
0.0662208
0.0664054
0.05631
0.0573914
0.0586193
0.0602126
0.0621458
0.0640212
0.0654962
0.0664842
0.0670708
0.0673761
0.056428
0.0579633
0.0594098
0.0609167
0.0626455
0.0644373
0.0660061
0.0671792
0.0679422
0.0683578
0.0569393
0.058796
0.0604454
0.0619563
0.0635437
0.0652057
0.066759
0.0680175
0.0688968
0.0693971
0.0577716
0.0598441
0.0616562
0.063217
0.0647311
0.0662777
0.0677672
0.0690409
0.0699801
0.0705364
0.05887
0.0610806
0.0630145
0.0646419
0.0661342
0.0676
0.0690159
0.070264
0.0712201
0.071806
0.0601923
0.0624892
0.0645109
0.0662076
0.067711
0.0691308
0.0704823
0.0716873
0.0726325
0.0732283
0.061714
0.0640629
0.0661476
0.0679092
0.0694422
0.0708432
0.0721463
0.0733044
0.0742236
0.074816
0.0634209
0.0658018
0.0679322
0.0697517
0.0713227
0.0727234
0.0739938
0.0751091
0.0759964
0.076578
0.0653109
0.0677117
0.0698762
0.0717455
0.0733564
0.0747676
0.0760177
0.077097
0.077952
0.0785192
0.0673884
0.0698034
0.0719937
0.0739049
0.0755528
0.0769791
0.0782175
0.0792678
0.0800931
0.080645
0.0696649
0.0720907
0.0743013
0.0762458
0.0779251
0.0793665
0.0805978
0.0816247
0.0824239
0.0829607
0.0721549
0.0745904
0.0768169
0.0787864
0.0804892
0.081942
0.0831675
0.0841751
0.0849518
0.0854743
0.0748767
0.0773214
0.0795602
0.0815461
0.083263
0.0847209
0.0859391
0.0869297
0.087687
0.0881958
0.0778706
0.0803308
0.0825779
0.0845664
0.08628
0.087728
0.0889308
0.089903
0.090644
0.0911392
)
;

boundaryField
{
    down
    {
        type            symmetryPlane;
    }
    right
    {
        type            calculated;
        value           nonuniform List<scalar> 
30
(
0.00225402
0.00658978
0.0109434
0.0152716
0.019546
0.0237293
0.0277781
0.0316531
0.0353281
0.0387911
0.0420181
0.044907
0.0476044
0.0501041
0.0524004
0.0544884
0.0563636
0.0580227
0.0594627
0.0606816
0.0616777
0.0624495
0.0629956
0.0633146
0.0634047
0.0632639
0.0628897
0.0622791
0.0614289
0.0603356
)
;
    }
    up
    {
        type            symmetryPlane;
    }
    left
    {
        type            calculated;
        value           uniform 0;
    }
    cylinder
    {
        type            symmetry;
    }
    defaultFaces
    {
        type            empty;
    }
}


// ************************************************************************* //
