/*--------------------------------*- C++ -*----------------------------------*\
| =========                 |                                                 |
| \\      /  F ield         | OpenFOAM: The Open Source CFD Toolbox           |
|  \\    /   O peration     | Version:  5.x                                   |
|   \\  /    A nd           | Web:      www.OpenFOAM.org                      |
|    \\/     M anipulation  |                                                 |
\*---------------------------------------------------------------------------*/
FoamFile
{
    version     2.0;
    format      ascii;
    class       volScalarField;
    location    "0";
    object      p;
}
// * * * * * * * * * * * * * * * * * * * * * * * * * * * * * * * * * * * * * //

dimensions      [0 2 -2 0 0 0 0];

internalField   nonuniform List<scalar> 
2000
(
-0.226625
-0.211091
-0.188102
-0.163865
-0.141632
-0.122696
-0.107276
-0.0950996
-0.0857245
-0.0789977
-0.312784
-0.296932
-0.273001
-0.246886
-0.221865
-0.199454
-0.18015
-0.163932
-0.150559
-0.139995
-0.396058
-0.379955
-0.355313
-0.327752
-0.300529
-0.2753
-0.252751
-0.233043
-0.216079
-0.202022
-0.474358
-0.458062
-0.432892
-0.404234
-0.375301
-0.34783
-0.322645
-0.300034
-0.279999
-0.262661
-0.545704
-0.529263
-0.503711
-0.474237
-0.444002
-0.414792
-0.387525
-0.362588
-0.34006
-0.31999
-0.608262
-0.591717
-0.565898
-0.535833
-0.504631
-0.474104
-0.445235
-0.418486
-0.394003
-0.371808
-0.660401
-0.643785
-0.617787
-0.587307
-0.555407
-0.523912
-0.493849
-0.465735
-0.439776
-0.416004
-0.700741
-0.684079
-0.657967
-0.627209
-0.594829
-0.562657
-0.53175
-0.502666
-0.475656
-0.450782
-0.728199
-0.711508
-0.685329
-0.654402
-0.621723
-0.589125
-0.557682
-0.527981
-0.500303
-0.474741
-0.742024
-0.725319
-0.699108
-0.668101
-0.635281
-0.602481
-0.570784
-0.540791
-0.512798
-0.486917
0.356593
0.337294
0.306344
0.273227
0.24138
0.212111
0.185803
0.162417
0.141728
0.123573
0.347146
0.33673
0.311369
0.279796
0.24802
0.218351
0.191519
0.167612
0.146451
0.127927
0.321994
0.321588
0.306934
0.281836
0.253176
0.224791
0.198336
0.174373
0.152965
0.134159
0.283686
0.289595
0.285734
0.270248
0.248199
0.22392
0.199902
0.177349
0.156737
0.138355
0.233773
0.243288
0.247853
0.24213
0.22848
0.21055
0.191074
0.171717
0.153366
0.136534
0.173506
0.185164
0.195763
0.198435
0.193267
0.182696
0.169153
0.154435
0.139713
0.125683
0.104296
0.117317
0.132172
0.14156
0.14403
0.14081
0.133741
0.12447
0.114278
0.104148
0.0277723
0.0417232
0.059615
0.0742359
0.0832064
0.086774
0.0861286
0.0825762
0.0772787
0.0716718
-0.0542325
-0.039609
-0.0195035
-0.000829175
0.0135273
0.0231103
0.0285517
0.0308009
0.0307433
0.0298891
-0.139728
-0.124594
-0.102845
-0.0810343
-0.0623039
-0.0476037
-0.0367713
-0.029207
-0.0242369
-0.0205161
0.107538
0.0931046
0.0803243
0.0691376
0.0593304
0.0507137
0.0431234
0.0364203
0.0304891
0.0252368
0.0205903
0.0164928
0.0129004
0.00978012
0.00710744
0.00486571
0.00304595
0.00164722
0.000677726
0.000150952
0.111243
0.0961427
0.082905
0.0713325
0.0611979
0.0523001
0.0444661
0.0375511
0.0314367
0.0260284
0.0212511
0.0170453
0.0133639
0.0101697
0.00743403
0.00513607
0.0032629
0.00180992
0.000781671
0.000187268
0.11674
0.100872
0.0871136
0.0750405
0.0644347
0.0550997
0.0468653
0.0395901
0.0331589
0.0274786
0.0224727
0.0180773
0.0142389
0.0109128
0.00806247
0.00565997
0.00368548
0.00212801
0.000985657
0.00025882
0.120951
0.105072
0.0913294
0.0790596
0.0681317
0.0584123
0.049775
0.0421105
0.035325
0.0293357
0.0240674
0.0194515
0.0154262
0.0119378
0.008941
0.0063995
0.00428595
0.00258199
0.00127794
0.000361771
0.120563
0.106191
0.0935966
0.0818824
0.0711108
0.0613097
0.0524657
0.0445467
0.0375043
0.0312773
0.0257965
0.0209909
0.0167935
0.0131441
0.00999143
0.00729328
0.00501654
0.00313654
0.00163615
0.00048844
0.112887
0.101943
0.0919986
0.0819295
0.0720832
0.0627599
0.0541325
0.046286
0.0392377
0.0329591
0.0273974
0.0224903
0.0181755
0.0143958
0.011101
0.00824872
0.00580357
0.00373679
0.00202508
0.000626431
0.0963081
0.0907023
0.0849393
0.0777585
0.0698331
0.0617953
0.0540335
0.0467654
0.0400893
0.0340315
0.0285793
0.0237011
0.019358
0.0155091
0.012115
0.00913919
0.00654792
0.0043107
0.00239947
0.00075981
0.0703924
0.0716923
0.0713449
0.0682889
0.0634492
0.0576941
0.0515905
0.0454972
0.0396281
0.0341051
0.0289913
0.0243128
0.0200722
0.0162576
0.0128482
0.00981832
0.00713948
0.00478157
0.00271313
0.000872663
0.0360486
0.0453227
0.0511073
0.0532269
0.0525989
0.050074
0.0463641
0.0420068
0.0373793
0.032735
0.0282378
0.0239871
0.0200382
0.0164158
0.0131238
0.0101525
0.00748196
0.00508545
0.00292982
0.00095307
-0.00587092
0.0128222
0.0257339
0.0338285
0.0379971
0.0391638
0.038272
0.0360574
0.0330517
0.0296308
0.0260542
0.0224954
0.0190652
0.0158294
0.0128212
0.0100508
0.0075107
0.00518034
0.00302725
0.000994318
-0.0457713
-0.0188157
7.9791e-05
0.0131199
0.0212927
0.0257105
0.0274755
0.0274424
0.0262304
0.0242819
0.0219109
0.0193363
0.0167067
0.0141186
0.0116295
0.00926793
0.0070402
0.00493505
0.0029267
0.000971302
-0.0722635
-0.0428509
-0.0213325
-0.005733
0.0050284
0.0119269
0.0159366
0.0178775
0.0183795
0.017908
0.0168016
0.0153027
0.0135817
0.0117549
0.00989721
0.00805217
0.00623888
0.00445695
0.00269004
0.000903674
-0.0931634
-0.0638136
-0.0409128
-0.0235811
-0.0108396
-0.00185301
0.00418604
0.00799693
0.0101698
0.0111651
0.0113315
0.0109278
0.0101422
0.00910841
0.00791743
0.00662731
0.00526986
0.00385576
0.00237817
0.000810819
-0.109943
-0.081619
-0.0583609
-0.0399667
-0.0257739
-0.015124
-0.00736408
-0.00188776
0.00182984
0.00421958
0.0056225
0.0063016
0.00645513
0.00622904
0.00572736
0.00502062
0.00415226
0.00314349
0.0019968
0.000694098
-0.123493
-0.0965121
-0.0735483
-0.0546599
-0.0394937
-0.0275836
-0.0184252
-0.0115245
-0.00643204
-0.00276152
-0.000193728
0.00152696
0.00260022
0.00317823
0.00337371
0.00326681
0.00291077
0.00233627
0.00155464
0.000556165
-0.13448
-0.108899
-0.0865608
-0.0675941
-0.0518547
-0.0390445
-0.0287943
-0.0207159
-0.0144374
-0.00962423
-0.00598836
-0.00329055
-0.00133738
2.35594e-05
0.000909116
0.00140581
0.0015744
0.00145357
0.00106276
0.000400578
-0.143383
-0.119171
-0.097605
-0.0788306
-0.0628244
-0.0494145
-0.0383448
-0.0293216
-0.0220466
-0.0162387
-0.011646
-0.00805169
-0.00527441
-0.00316668
-0.00161171
-0.000519854
0.000174742
0.000517114
0.000533826
0.000231498
-0.150567
-0.127658
-0.106918
-0.0884997
-0.0724459
-0.0586728
-0.0470129
-0.0372523
-0.0291589
-0.022503
-0.0170702
-0.0126691
-0.00913449
-0.00632764
-0.0041353
-0.0024676
-0.00125587
-0.000450405
-1.86573e-05
5.34194e-05
-0.156326
-0.134639
-0.114728
-0.0967578
-0.0808055
-0.066847
-0.0547818
-0.0444608
-0.0357089
-0.0283429
-0.022185
-0.0170701
-0.0128512
-0.00940083
-0.00661195
-0.00439682
-0.00268591
-0.00142644
-0.000581063
-0.000129071
-0.160904
-0.140349
-0.121243
-0.103764
-0.0880091
-0.0739939
-0.0616677
-0.0509321
-0.0416597
-0.0337086
-0.0269342
-0.0211971
-0.0163692
-0.0123357
-0.00899737
-0.00627036
-0.0040859
-0.00238954
-0.00114024
-0.000311508
-0.164509
-0.144987
-0.126646
-0.109669
-0.0941682
-0.0801856
-0.0677068
-0.0566735
-0.0469971
-0.0385704
-0.0312788
-0.0250068
-0.0196444
-0.0150902
-0.0112534
-0.00805541
-0.00542927
-0.00332002
-0.00168394
-0.000489704
-0.167316
-0.148728
-0.131095
-0.11461
-0.0993911
-0.0854991
-0.0729471
-0.0617074
-0.0517224
-0.0429144
-0.0351943
-0.0284683
-0.0226432
-0.0176305
-0.0133485
-0.00972391
-0.00669277
-0.00420035
-0.00220115
-0.000659863
-0.169476
-0.151718
-0.134731
-0.11871
-0.103778
-0.0900111
-0.0774411
-0.0660643
-0.0558478
-0.046738
-0.0386673
-0.0315608
-0.0253408
-0.0199304
-0.0152568
-0.0112525
-0.00785666
-0.00501542
-0.00268224
-0.000818639
-0.171114
-0.154082
-0.13767
-0.122074
-0.10742
-0.0937933
-0.0812417
-0.069779
-0.059392
-0.0500464
-0.0416927
-0.034272
-0.0277199
-0.0219703
-0.0169585
-0.0126224
-0.00890459
-0.00575248
-0.00311898
-0.000963162
-0.172336
-0.155925
-0.140013
-0.124794
-0.110395
-0.0969109
-0.0843987
-0.0728865
-0.0623764
-0.0528495
-0.0442711
-0.0365953
-0.0297691
-0.023736
-0.0184381
-0.0138187
-0.00982337
-0.00640108
-0.00350456
-0.00109104
-0.173229
-0.157335
-0.141844
-0.126946
-0.112773
-0.0994207
-0.0869571
-0.0754201
-0.0648232
-0.0551597
-0.0464064
-0.0385282
-0.0314816
-0.0252175
-0.0196844
-0.0148299
-0.0106026
-0.00695287
-0.00383347
-0.00120031
-0.173863
-0.158381
-0.143229
-0.128594
-0.114607
-0.10137
-0.0889557
-0.0774091
-0.0667529
-0.0569894
-0.0481044
-0.0400712
-0.0328533
-0.0264082
-0.0206892
-0.0156476
-0.0112344
-0.00740134
-0.00410136
-0.00128944
-0.174291
-0.159118
-0.144223
-0.129787
-0.115945
-0.102799
-0.0904264
-0.0788784
-0.0681835
-0.0583504
-0.0493714
-0.0412257
-0.0338826
-0.027304
-0.0214469
-0.0162656
-0.0117129
-0.00774164
-0.00430497
-0.00135725
-0.174555
-0.159587
-0.144863
-0.130562
-0.116818
-0.103735
-0.0913932
-0.0798471
-0.0691291
-0.0592521
-0.0502126
-0.041994
-0.0345689
-0.0279023
-0.0219539
-0.0166798
-0.0120341
-0.00797033
-0.00444196
-0.00140291
-0.174679
-0.159814
-0.145176
-0.130943
-0.117249
-0.104198
-0.0918725
-0.0803282
-0.0695994
-0.0597012
-0.0506322
-0.0423776
-0.034912
-0.0282018
-0.0222079
-0.0168875
-0.0121953
-0.00808521
-0.00451082
-0.00142587
-0.463307
-0.452131
-0.430177
-0.398346
-0.357946
-0.310631
-0.25827
-0.202597
-0.145095
-0.0896719
-0.441753
-0.431982
-0.412816
-0.385025
-0.349722
-0.308295
-0.262212
-0.212714
-0.161343
-0.112667
-0.422231
-0.413667
-0.396916
-0.372658
-0.341825
-0.30546
-0.264501
-0.219949
-0.173893
-0.130488
-0.404637
-0.3971
-0.382393
-0.361068
-0.33382
-0.301361
-0.264416
-0.224269
-0.183295
-0.144354
-0.388827
-0.382137
-0.369096
-0.350116
-0.325697
-0.296401
-0.263036
-0.227106
-0.190652
-0.155377
-0.374629
-0.368612
-0.356894
-0.339778
-0.317663
-0.291112
-0.261054
-0.228939
-0.196269
-0.164095
-0.361873
-0.356382
-0.345713
-0.330111
-0.309954
-0.285854
-0.258772
-0.22994
-0.2004
-0.170916
-0.350412
-0.345336
-0.335516
-0.321182
-0.302733
-0.280811
-0.25632
-0.230243
-0.203316
-0.17619
-0.340129
-0.335389
-0.326277
-0.313035
-0.296086
-0.276068
-0.25378
-0.229996
-0.205271
-0.180213
-0.330933
-0.326476
-0.317973
-0.305685
-0.290046
-0.271662
-0.251223
-0.229346
-0.206489
-0.183234
-0.322754
-0.318544
-0.310574
-0.299121
-0.284616
-0.267618
-0.248717
-0.228428
-0.207157
-0.185459
-0.315538
-0.311546
-0.304046
-0.293321
-0.279788
-0.263953
-0.246328
-0.227359
-0.207426
-0.18706
-0.309238
-0.30544
-0.298354
-0.288259
-0.27555
-0.260682
-0.24411
-0.226235
-0.207424
-0.18818
-0.303814
-0.300188
-0.293463
-0.283908
-0.271889
-0.25782
-0.242111
-0.225136
-0.207252
-0.188938
-0.299232
-0.295755
-0.289341
-0.280241
-0.268795
-0.255379
-0.24037
-0.224124
-0.206993
-0.189432
-0.295461
-0.292113
-0.28596
-0.277239
-0.26626
-0.25337
-0.238919
-0.223252
-0.206713
-0.189742
-0.292475
-0.289235
-0.283299
-0.274884
-0.264278
-0.251801
-0.237784
-0.222558
-0.206466
-0.18993
-0.290254
-0.287102
-0.281338
-0.273164
-0.262846
-0.250682
-0.236984
-0.222075
-0.206292
-0.190047
-0.288782
-0.285698
-0.280065
-0.27207
-0.261961
-0.250017
-0.236535
-0.221827
-0.206223
-0.190128
-0.288051
-0.285015
-0.279472
-0.271598
-0.261624
-0.249814
-0.236449
-0.22183
-0.206281
-0.190199
-0.0709293
-0.0774111
-0.0866752
-0.0988511
-0.11436
-0.13346
-0.155913
-0.180401
-0.203632
-0.219333
-0.133783
-0.144051
-0.157274
-0.173443
-0.192783
-0.215301
-0.240482
-0.266788
-0.290904
-0.306885
-0.197318
-0.211097
-0.227892
-0.247518
-0.27006
-0.295348
-0.322679
-0.350378
-0.375157
-0.391358
-0.259205
-0.276289
-0.296148
-0.318652
-0.343799
-0.371288
-0.400285
-0.429037
-0.454306
-0.470675
-0.317547
-0.337384
-0.359737
-0.384556
-0.411762
-0.44096
-0.471225
-0.500756
-0.526374
-0.542867
-0.370154
-0.392142
-0.41646
-0.443092
-0.471889
-0.502385
-0.533593
-0.563688
-0.589547
-0.606127
-0.414941
-0.438538
-0.464356
-0.492363
-0.522356
-0.553812
-0.585703
-0.616195
-0.642215
-0.658854
-0.450147
-0.474888
-0.501788
-0.530787
-0.561635
-0.593771
-0.626136
-0.656896
-0.68302
-0.699695
-0.474411
-0.49989
-0.527498
-0.557144
-0.588548
-0.62112
-0.653787
-0.684713
-0.710898
-0.727594
-0.486816
-0.512669
-0.540637
-0.570612
-0.602295
-0.635086
-0.667901
-0.698908
-0.72512
-0.741826
0.14976
0.166996
0.186871
0.209557
0.23529
0.264119
0.29567
0.328642
0.359576
0.378888
0.153757
0.171425
0.19182
0.215069
0.241358
0.270613
0.302105
0.333513
0.358766
0.369043
0.159238
0.177299
0.19802
0.221385
0.247341
0.275327
0.303678
0.328521
0.3429
0.343007
0.162241
0.180018
0.200033
0.222053
0.245604
0.269475
0.291154
0.306266
0.309708
0.303423
0.158778
0.175149
0.192997
0.211883
0.230915
0.24842
0.261639
0.266899
0.261839
0.251929
0.145882
0.159589
0.1739
0.18821
0.20134
0.211483
0.216188
0.213015
0.201905
0.189871
0.121999
0.131923
0.141801
0.150738
0.157442
0.160256
0.157331
0.147451
0.132115
0.118754
0.0869967
0.0925
0.0975932
0.100898
0.101242
0.0973157
0.0879321
0.0728637
0.0545448
0.0402986
0.0426814
0.0435249
0.0434853
0.0410752
0.0354044
0.0255254
0.0108166
-0.00824152
-0.028711
-0.0435843
-0.010185
-0.013799
-0.0187532
-0.0263916
-0.0373796
-0.0523075
-0.0713228
-0.0934497
-0.115501
-0.130842
0.0636538
0.0630642
0.0614094
0.0598151
0.0588295
0.0584399
0.058641
0.059436
0.0608371
0.062867
0.0655607
0.0689678
0.073156
0.0782139
0.0842541
0.0914142
0.0998583
0.109775
0.121383
0.134729
0.0626882
0.0620255
0.0605038
0.0590341
0.0581698
0.0578999
0.058222
0.0591431
0.0606801
0.0628601
0.0657222
0.0693194
0.0737217
0.0790199
0.0853297
0.0927942
0.101586
0.111907
0.123989
0.138023
0.0607807
0.0599914
0.058732
0.0575098
0.0568828
0.0568431
0.0573936
0.0585484
0.0603326
0.0627822
0.0659443
0.0698776
0.0746548
0.0803663
0.0871245
0.095069
0.104368
0.115219
0.127845
0.142677
0.0579821
0.057045
0.056167
0.0553096
0.0550255
0.0553098
0.0561716
0.0576337
0.0597319
0.0625135
0.0660361
0.0703656
0.0755754
0.0817468
0.0889717
0.0973567
0.107024
0.118104
0.130729
0.145592
0.0543631
0.0532953
0.0529027
0.0525183
0.0526674
0.0533473
0.0545729
0.0563755
0.0588005
0.0619058
0.0657576
0.0704273
0.0759843
0.0824906
0.0899934
0.0985219
0.108082
0.118634
0.130116
0.143468
0.0500159
0.0488684
0.0490433
0.0492242
0.0498729
0.0509894
0.0525951
0.0547289
0.0574424
0.0607963
0.0648567
0.0696893
0.0753495
0.0818673
0.0892258
0.0973368
0.106018
0.114948
0.123775
0.133678
0.0450618
0.0439071
0.0447036
0.045514
0.0466885
0.0482352
0.0501887
0.0525972
0.0555134
0.0589896
0.0630736
0.0678027
0.0731929
0.0792196
0.0857841
0.0926655
0.0994656
0.105527
0.110169
0.114709
0.0396681
0.0385848
0.0400246
0.0414838
0.0431435
0.0450426
0.0472456
0.0498136
0.052795
0.056221
0.0601013
0.064417
0.0691082
0.0740532
0.0790355
0.0836906
0.0874424
0.0894002
0.0886401
0.0862566
0.0340781
0.033134
0.0352008
0.0372496
0.0392523
0.0413417
0.0436285
0.0461812
0.0490324
0.0521794
0.0555805
0.0591432
0.0627066
0.0660162
0.0686907
0.0701846
0.0697756
0.0665989
0.0597446
0.0493788
0.0286859
0.02792
0.0304926
0.0329018
0.034988
0.0370602
0.0392433
0.0415858
0.0440876
0.0467031
0.0493332
0.0518103
0.0538771
0.0551562
0.0551109
0.0529975
0.0478613
0.0387682
0.024822
0.00499852
0.0245604
0.0237862
0.0260329
0.0282553
0.0301873
0.0320433
0.0339086
0.0358029
0.0376966
0.0395104
0.0411056
0.0422684
0.0426864
0.041915
0.0393297
0.0340662
0.0250075
0.0110277
-0.00886557
-0.0368654
0.0210588
0.0201119
0.0216696
0.023401
0.0250197
0.0265338
0.0279636
0.0292963
0.0304772
0.0314033
0.0319118
0.031764
0.030622
0.0280181
0.0233176
0.015693
0.00416327
-0.0122475
-0.0346204
-0.06488
0.0172923
0.0161682
0.0172044
0.018439
0.019645
0.0207373
0.0216727
0.022399
0.0228334
0.0228491
0.0222624
0.0208166
0.0181633
0.0138404
0.00725499
-0.00231553
-0.0156795
-0.0336679
-0.057254
-0.0872469
0.0131281
0.0118785
0.0125399
0.0133369
0.0141035
0.0147291
0.0151311
0.0152249
0.0149024
0.0140175
0.0123725
0.00970494
0.00567344
-0.000153567
-0.00830181
-0.0193777
-0.0340314
-0.0529137
-0.0766736
-0.10545
0.00861345
0.00728953
0.00766667
0.0080875
0.00842791
0.00857683
0.00843339
0.00789192
0.00682688
0.00507985
0.00244818
-0.00132523
-0.00656021
-0.0136433
-0.0230232
-0.0351919
-0.0506488
-0.0698502
-0.0931329
-0.120393
0.00383911
0.0024833
0.00262946
0.00272361
0.00266597
0.00235197
0.00167467
0.000518096
-0.00125232
-0.00379927
-0.00732188
-0.0120624
-0.0183101
-0.0263992
-0.0367002
-0.0495979
-0.0654555
-0.0845611
-0.107044
-0.132743
-0.00109571
-0.00244948
-0.00250106
-0.00269533
-0.00311835
-0.00386766
-0.00504984
-0.00678343
-0.00920451
-0.0124728
-0.0167771
-0.0223382
-0.0294095
-0.0382721
-0.0492221
-0.0625496
-0.0785045
-0.0972498
-0.118797
-0.142977
-0.00609347
-0.00741826
-0.00764447
-0.00809602
-0.00885094
-0.0100004
-0.0116474
-0.0139078
-0.0169136
-0.020816
-0.0257883
-0.0320265
-0.0397467
-0.0491785
-0.0605521
-0.0740776
-0.0899171
-0.108147
-0.128715
-0.15145
-0.0110615
-0.0123363
-0.0127188
-0.0134006
-0.0144541
-0.015965
-0.0180305
-0.0207609
-0.0242801
-0.0287271
-0.0342571
-0.0410395
-0.0492543
-0.0590843
-0.070703
-0.0842561
-0.0998397
-0.117473
-0.137069
-0.158449
-0.0159131
-0.0171221
-0.017645
-0.0185321
-0.0198517
-0.0216837
-0.0241191
-0.0272604
-0.0312211
-0.0361264
-0.0421116
-0.0493203
-0.0578989
-0.0679894
-0.0797177
-0.0931792
-0.108421
-0.125423
-0.144083
-0.164208
-0.0205687
-0.0217012
-0.0223493
-0.0234182
-0.0249721
-0.0270853
-0.0298422
-0.0333362
-0.0376697
-0.042953
-0.0493022
-0.0568362
-0.0656716
-0.0759154
-0.0876548
-0.100946
-0.115801
-0.132172
-0.149947
-0.168925
-0.0249562
-0.0260057
-0.0267647
-0.0279928
-0.0297504
-0.0321065
-0.0351382
-0.03893
-0.0435728
-0.0491623
-0.0557964
-0.0635719
-0.0725793
-0.0828962
-0.094579
-0.107653
-0.122105
-0.137868
-0.154824
-0.172764
-0.0290112
-0.0299758
-0.0308315
-0.0321973
-0.0341296
-0.0366921
-0.0399551
-0.0439942
-0.0488894
-0.0547225
-0.0615751
-0.0695245
-0.0786389
-0.0889718
-0.100555
-0.113391
-0.127445
-0.14264
-0.158851
-0.175868
-0.0326775
-0.0335587
-0.0344975
-0.0359805
-0.0380602
-0.0407954
-0.0442497
-0.0484908
-0.0535882
-0.0596118
-0.0666284
-0.0746986
-0.0838723
-0.0941832
-0.105644
-0.118238
-0.131918
-0.146596
-0.162144
-0.178353
-0.0359065
-0.0367097
-0.0377184
-0.039299
-0.0415006
-0.0443774
-0.0479871
-0.0523899
-0.0576465
-0.0638159
-0.0709528
-0.0791037
-0.0883033
-0.0985698
-0.1099
-0.122266
-0.135606
-0.149827
-0.1648
-0.180316
-0.0386575
-0.0393909
-0.0404569
-0.0421168
-0.0444167
-0.0474066
-0.0511393
-0.0556685
-0.0610474
-0.0673261
-0.0745488
-0.082751
-0.0919552
-0.102167
-0.113373
-0.125533
-0.138578
-0.152411
-0.166898
-0.181838
-0.0408972
-0.0415716
-0.0426827
-0.0444046
-0.0467808
-0.049858
-0.0536847
-0.0583095
-0.0637793
-0.0701372
-0.0774193
-0.0856521
-0.0948492
-0.105007
-0.116102
-0.128088
-0.14089
-0.154406
-0.168503
-0.182983
-0.0425995
-0.0432279
-0.0443722
-0.0461397
-0.0485717
-0.0517124
-0.055607
-0.0603001
-0.0658341
-0.0722466
-0.0795678
-0.0878178
-0.0970032
-0.107114
-0.118121
-0.129971
-0.142587
-0.155862
-0.169665
-0.183799
-0.0437451
-0.0443419
-0.0455082
-0.0473055
-0.0497741
-0.0529561
-0.0568947
-0.0616318
-0.0672066
-0.0736532
-0.0809979
-0.0892565
-0.0984312
-0.108508
-0.119453
-0.13121
-0.143699
-0.156813
-0.170419
-0.184323
-0.0443213
-0.044902
-0.046079
-0.0478912
-0.0503778
-0.0535802
-0.0575404
-0.062299
-0.0678936
-0.0743566
-0.0817123
-0.0899743
-0.0991429
-0.109202
-0.120115
-0.131825
-0.14425
-0.157282
-0.170788
-0.184579
-0.082449
-0.13972
-0.198617
-0.255397
-0.308646
-0.356645
-0.397546
-0.429725
-0.451909
-0.463241
-0.106771
-0.157121
-0.2097
-0.260123
-0.306922
-0.348882
-0.384556
-0.412585
-0.431887
-0.441728
-0.12584
-0.170738
-0.217839
-0.263159
-0.304677
-0.341433
-0.372515
-0.396905
-0.413698
-0.422248
-0.140922
-0.181164
-0.223028
-0.263806
-0.301167
-0.333878
-0.361252
-0.382602
-0.397258
-0.404695
-0.153139
-0.189513
-0.226695
-0.263123
-0.296777
-0.326198
-0.350625
-0.369525
-0.382421
-0.388926
-0.163027
-0.196096
-0.229328
-0.261803
-0.292028
-0.31859
-0.340603
-0.357539
-0.369021
-0.374769
-0.17099
-0.201166
-0.231101
-0.26015
-0.28728
-0.311283
-0.331238
-0.346566
-0.356913
-0.362052
-0.177368
-0.204987
-0.232145
-0.258296
-0.282715
-0.304438
-0.322593
-0.336565
-0.345982
-0.35063
-0.182451
-0.207809
-0.232604
-0.256321
-0.278419
-0.298141
-0.314709
-0.32751
-0.336143
-0.340382
-0.18648
-0.209846
-0.232619
-0.254294
-0.27443
-0.292423
-0.307599
-0.319374
-0.327329
-0.331219
-0.189652
-0.211279
-0.23232
-0.25228
-0.27077
-0.287288
-0.301254
-0.312127
-0.319487
-0.32307
-0.192132
-0.212254
-0.231819
-0.25034
-0.267455
-0.282727
-0.295652
-0.305734
-0.312568
-0.31588
-0.194055
-0.212893
-0.231208
-0.248527
-0.264498
-0.278726
-0.290764
-0.300162
-0.306532
-0.309603
-0.195531
-0.213291
-0.230561
-0.246884
-0.261911
-0.275273
-0.286564
-0.295373
-0.30134
-0.304199
-0.196654
-0.213527
-0.229941
-0.245449
-0.259706
-0.272356
-0.283026
-0.291338
-0.296957
-0.299633
-0.197495
-0.213664
-0.229395
-0.244253
-0.257891
-0.269967
-0.280128
-0.288027
-0.293355
-0.295875
-0.198114
-0.213752
-0.228961
-0.243318
-0.256475
-0.268098
-0.277854
-0.285419
-0.290507
-0.292899
-0.198556
-0.213828
-0.22867
-0.242664
-0.255465
-0.266746
-0.27619
-0.283495
-0.288395
-0.290685
-0.198855
-0.213923
-0.228545
-0.242307
-0.254868
-0.265909
-0.275129
-0.282243
-0.287002
-0.289217
-0.199033
-0.214056
-0.228601
-0.242257
-0.254689
-0.265588
-0.274665
-0.281654
-0.286321
-0.288486
)
;

boundaryField
{
    down
    {
        type            symmetryPlane;
    }
    right
    {
        type            fixedValue;
        value           uniform 0;
    }
    up
    {
        type            symmetryPlane;
    }
    left
    {
        type            zeroGradient;
    }
    cylinder
    {
        type            symmetry;
    }
    defaultFaces
    {
        type            empty;
    }
}


// ************************************************************************* //
