/*--------------------------------*- C++ -*----------------------------------*\
| =========                 |                                                 |
| \\      /  F ield         | OpenFOAM: The Open Source CFD Toolbox           |
|  \\    /   O peration     | Version:  5.x                                   |
|   \\  /    A nd           | Web:      www.OpenFOAM.org                      |
|    \\/     M anipulation  |                                                 |
\*---------------------------------------------------------------------------*/
FoamFile
{
    version     2.0;
    format      ascii;
    class       volScalarField;
    location    "0";
    object      Phi;
}
// * * * * * * * * * * * * * * * * * * * * * * * * * * * * * * * * * * * * * //

dimensions      [0 2 -1 0 0 0 0];

internalField   nonuniform List<scalar> 
2000
(
1.48979
1.48355
1.47255
1.45785
1.4402
1.42016
1.39817
1.37455
1.34957
1.32342
1.55255
1.54684
1.53679
1.52335
1.50721
1.4889
1.46879
1.44721
1.42438
1.40049
1.61938
1.61425
1.6052
1.59311
1.57859
1.56212
1.54403
1.52461
1.50408
1.48261
1.68987
1.68534
1.67737
1.66671
1.65391
1.63937
1.62342
1.60628
1.58815
1.56917
1.76359
1.7597
1.75285
1.74369
1.73268
1.72019
1.70647
1.69173
1.67612
1.65977
1.84008
1.83685
1.83117
1.82357
1.81445
1.80408
1.7927
1.78045
1.76749
1.75389
1.91887
1.91633
1.91186
1.90588
1.89869
1.89053
1.88156
1.87191
1.86169
1.85097
1.99947
1.99763
1.9944
1.99008
1.98489
1.97899
1.97251
1.96553
1.95814
1.95039
2.08137
2.08026
2.07829
2.07566
2.0725
2.06891
2.06496
2.06072
2.05622
2.0515
2.16407
2.16368
2.163
2.16208
2.16097
2.15971
2.15834
2.15685
2.15528
2.15364
1.15415
1.14513
1.12925
1.10804
1.08261
1.05378
1.02217
0.988271
0.952462
0.915042
1.16058
1.15161
1.13583
1.11474
1.08945
1.06078
1.02935
0.995642
0.960039
0.922838
1.1734
1.16454
1.14893
1.12808
1.10308
1.07473
1.04366
1.01034
0.975142
0.938369
1.19254
1.18383
1.1685
1.14801
1.12344
1.09557
1.06503
1.03227
0.997675
0.961532
1.2179
1.20939
1.19442
1.1744
1.1504
1.12318
1.09333
1.06132
1.02751
0.99218
1.24932
1.24107
1.22654
1.20712
1.18383
1.1574
1.12842
1.09733
1.06447
1.03013
1.28662
1.27868
1.26468
1.24598
1.22353
1.19807
1.17012
1.14012
1.10838
1.07519
1.32959
1.322
1.30863
1.29076
1.2693
1.24495
1.21822
1.1895
1.15909
1.12723
1.37797
1.37078
1.35812
1.3412
1.32088
1.29781
1.27248
1.24526
1.21643
1.18619
1.43148
1.42474
1.41287
1.39701
1.37796
1.35633
1.3326
1.3071
1.28012
1.25192
0.876352
0.836222
0.795076
0.753057
0.710285
0.666861
0.622873
0.578395
0.533491
0.488215
0.442614
0.396732
0.350605
0.304268
0.257753
0.21109
0.164307
0.117433
0.070494
0.0235163
0.883972
0.843295
0.801646
0.759155
0.715938
0.672092
0.6277
0.582832
0.537549
0.491902
0.445938
0.399695
0.353212
0.306522
0.259656
0.212644
0.165514
0.118293
0.0710087
0.0236867
0.899152
0.857397
0.814747
0.77132
0.727219
0.682533
0.637336
0.591692
0.545653
0.499268
0.452575
0.405614
0.358419
0.311022
0.263454
0.215743
0.167919
0.120007
0.0720346
0.0240262
0.921789
0.878432
0.834296
0.789479
0.744068
0.698136
0.651744
0.604944
0.557779
0.510287
0.462504
0.414465
0.366202
0.317746
0.269126
0.220371
0.171509
0.122565
0.0735648
0.0245326
0.951725
0.906254
0.860164
0.813523
0.766394
0.718828
0.670865
0.622538
0.573878
0.524915
0.47568
0.426204
0.376519
0.326654
0.276638
0.226498
0.17626
0.125949
0.0755891
0.0252022
0.988757
0.94067
0.892178
0.843309
0.794083
0.744514
0.694611
0.644389
0.593866
0.543068
0.492021
0.440756
0.389302
0.337688
0.285939
0.234082
0.182141
0.130138
0.0780946
0.026031
1.03266
0.981458
0.93015
0.878682
0.826999
0.77506
0.722847
0.670357
0.617604
0.56461
0.511403
0.458009
0.404454
0.350764
0.296963
0.243073
0.189114
0.135106
0.081067
0.0270144
1.08326
1.02843
0.973923
0.919488
0.864962
0.810259
0.755344
0.700211
0.644873
0.589347
0.533654
0.477816
0.421854
0.365787
0.309634
0.253412
0.197137
0.140825
0.0844905
0.0281476
1.14062
1.08159
1.02341
0.965519
0.907671
0.849765
0.79176
0.733639
0.675399
0.617043
0.55858
0.50002
0.441373
0.382653
0.32387
0.265037
0.206165
0.147265
0.0883482
0.0294254
1.20507
1.14122
1.0784
1.01631
0.954607
0.893104
0.83169
0.770302
0.708902
0.647468
0.585989
0.52446
0.462881
0.401255
0.339586
0.277881
0.216147
0.154391
0.0926195
0.0308408
1.24744
1.1801
1.11394
1.04874
0.984219
0.920151
0.856375
0.792784
0.729303
0.665885
0.602498
0.53912
0.475739
0.412348
0.348943
0.285523
0.22209
0.158644
0.0951903
0.0317307
1.26203
1.19333
1.12587
1.05939
0.993659
0.928485
0.863713
0.799229
0.734949
0.670813
0.606777
0.542811
0.478892
0.415005
0.351138
0.287283
0.223437
0.159596
0.0957565
0.0319187
1.27506
1.20532
1.13681
1.06928
1.00254
0.936418
0.870763
0.805469
0.74045
0.67564
0.610988
0.546456
0.482014
0.417641
0.353319
0.289036
0.22478
0.160544
0.0963214
0.0321063
1.28656
1.21609
1.14676
1.0784
1.01082
0.943879
0.877452
0.811435
0.745743
0.680309
0.615079
0.55001
0.485068
0.420226
0.355463
0.29076
0.226103
0.161479
0.0968787
0.0322914
1.29669
1.2257
1.15576
1.08672
1.01845
0.950827
0.883732
0.817076
0.750778
0.684774
0.619008
0.553436
0.488021
0.422733
0.357545
0.292438
0.227392
0.162392
0.0974227
0.0324722
1.30562
1.23426
1.16385
1.09428
1.02545
0.957243
0.889575
0.822358
0.755521
0.689
0.622744
0.556706
0.490848
0.425138
0.359548
0.294055
0.228636
0.163273
0.0979483
0.0326469
1.31349
1.24186
1.17109
1.10111
1.03181
0.963124
0.894965
0.827261
0.759946
0.692963
0.626261
0.559795
0.493527
0.427424
0.361456
0.295597
0.229823
0.164115
0.0984511
0.0328141
1.32043
1.2486
1.17756
1.10724
1.03757
0.968478
0.899901
0.831775
0.764041
0.696645
0.629541
0.562686
0.496042
0.429574
0.363254
0.297053
0.230947
0.164912
0.0989273
0.0329725
1.32653
1.25456
1.18331
1.11272
1.04274
0.973318
0.904387
0.835897
0.767796
0.700036
0.632573
0.565366
0.498379
0.431578
0.364933
0.298415
0.231998
0.165659
0.0993738
0.033121
1.33188
1.25981
1.1884
1.1176
1.04737
0.977663
0.908432
0.83963
0.771211
0.703131
0.635349
0.567827
0.500531
0.433426
0.366484
0.299675
0.232972
0.166351
0.0997881
0.0332589
1.33654
1.26441
1.19287
1.1219
1.05147
0.981532
0.912049
0.842981
0.774286
0.705927
0.637864
0.570063
0.50249
0.435113
0.367902
0.300828
0.233865
0.166987
0.100168
0.0333854
1.34059
1.26841
1.19678
1.12568
1.05508
0.984946
0.915252
0.845958
0.777027
0.708426
0.640118
0.572072
0.504254
0.436634
0.369182
0.301871
0.234673
0.167562
0.100513
0.0335001
1.34406
1.27185
1.20015
1.12895
1.05821
0.987925
0.918055
0.84857
0.77944
0.710631
0.642112
0.573851
0.505819
0.437986
0.370322
0.3028
0.235394
0.168076
0.10082
0.0336026
1.34701
1.27478
1.20303
1.13174
1.0609
0.990488
0.920473
0.850829
0.78153
0.712546
0.643846
0.575403
0.507187
0.439168
0.37132
0.303615
0.236026
0.168526
0.10109
0.0336926
1.34947
1.27723
1.20544
1.13409
1.06317
0.992651
0.922518
0.852745
0.783306
0.714175
0.645325
0.576728
0.508356
0.440181
0.372176
0.304314
0.236569
0.168913
0.101322
0.0337699
1.35148
1.27923
1.20742
1.13602
1.06503
0.994431
0.924203
0.854325
0.784774
0.715525
0.646552
0.577828
0.509327
0.441023
0.372888
0.304896
0.237021
0.169236
0.101516
0.0338344
1.35305
1.28081
1.20897
1.13754
1.0665
0.995838
0.925538
0.855579
0.785941
0.716598
0.647528
0.578705
0.510103
0.441695
0.373457
0.305362
0.237383
0.169495
0.101671
0.033886
1.35421
1.28197
1.21012
1.13867
1.06759
0.996885
0.926532
0.856514
0.786811
0.7174
0.648258
0.579361
0.510683
0.442199
0.373884
0.305711
0.237655
0.169689
0.101787
0.0339248
1.35498
1.28274
1.21088
1.13941
1.06831
0.997578
0.927191
0.857134
0.787388
0.717932
0.648743
0.579797
0.511069
0.442535
0.374168
0.305944
0.237835
0.169818
0.101865
0.0339506
1.35536
1.28312
1.21126
1.13978
1.06867
0.997923
0.927519
0.857443
0.787676
0.718198
0.648985
0.580015
0.511262
0.442702
0.37431
0.30606
0.237926
0.169882
0.101904
0.0339636
2.15334
2.05079
1.94925
1.84935
1.75176
1.65709
1.56594
1.47883
1.39616
1.31831
2.15433
2.05395
1.95448
1.85653
1.76071
1.66763
1.57791
1.49214
1.41083
1.3339
2.1552
2.05675
1.95914
1.86294
1.76874
1.67715
1.58879
1.50421
1.42381
1.3474
2.15597
2.05925
1.96331
1.86871
1.77601
1.6858
1.59863
1.515
1.43516
1.35907
2.15666
2.0615
1.96709
1.87395
1.78262
1.69363
1.60749
1.52459
1.44514
1.36928
2.15729
2.06355
1.97053
1.87872
1.78862
1.70072
1.61544
1.53311
1.45399
1.37828
2.15785
2.06541
1.97366
1.88306
1.79407
1.70711
1.62255
1.54071
1.46185
1.38623
2.15836
2.06712
1.97653
1.88702
1.79901
1.71287
1.62895
1.54752
1.46886
1.39327
2.15883
2.06869
1.97916
1.89064
1.8035
1.71809
1.6347
1.55362
1.47512
1.39949
2.15927
2.07014
1.98158
1.89395
1.80759
1.72281
1.6399
1.55911
1.48071
1.40497
2.15967
2.07147
1.9838
1.89697
1.81132
1.7271
1.6446
1.56404
1.48569
1.40979
2.16004
2.0727
1.98584
1.89975
1.81473
1.73102
1.64886
1.56849
1.49013
1.41401
2.16038
2.07384
1.98773
1.90232
1.81786
1.73459
1.65273
1.57249
1.49407
1.41768
2.1607
2.0749
1.98948
1.90468
1.82074
1.73786
1.65624
1.57608
1.49756
1.42084
2.161
2.07589
1.9911
1.90687
1.82339
1.74085
1.65943
1.5793
1.50062
1.42354
2.16129
2.07681
1.99261
1.9089
1.82583
1.74359
1.66232
1.58218
1.5033
1.4258
2.16156
2.07767
1.99402
1.91078
1.82809
1.7461
1.66494
1.58474
1.50561
1.42765
2.16182
2.07848
1.99533
1.91252
1.83017
1.74839
1.6673
1.587
1.50757
1.42911
2.16206
2.07923
1.99656
1.91414
1.83208
1.75047
1.66941
1.58896
1.50921
1.4302
2.1623
2.07994
1.9977
1.91563
1.83383
1.75236
1.67128
1.59065
1.51052
1.43093
3.08851
3.06252
3.03767
3.01416
2.99226
2.9723
2.95471
2.94006
2.92909
2.92287
3.01092
2.98722
2.96456
2.94312
2.92314
2.90493
2.88888
2.87551
2.86551
2.85983
2.92838
2.90712
2.88677
2.86752
2.84958
2.83323
2.81882
2.80681
2.79783
2.79273
2.84147
2.82271
2.80478
2.78782
2.77203
2.75764
2.74496
2.73439
2.72649
2.72201
2.7506
2.73447
2.71906
2.70451
2.69096
2.67862
2.66775
2.65869
2.65192
2.64808
2.65627
2.64289
2.63012
2.61807
2.60686
2.59666
2.58767
2.58018
2.57459
2.57141
2.55903
2.54852
2.5385
2.52905
2.52026
2.51226
2.50521
2.49935
2.49497
2.49248
2.4595
2.45195
2.44476
2.43798
2.43168
2.42594
2.42089
2.41669
2.41355
2.41177
2.35831
2.3538
2.3495
2.34544
2.34168
2.33825
2.33524
2.33273
2.33086
2.32979
2.25613
2.25469
2.25332
2.25203
2.25083
2.24974
2.24878
2.24799
2.24739
2.24705
3.50241
3.46452
3.42829
3.39401
3.36206
3.33294
3.30725
3.28585
3.26982
3.26073
3.49445
3.4568
3.42079
3.38672
3.35497
3.32602
3.30049
3.27921
3.26328
3.25424
3.4786
3.44142
3.40585
3.3722
3.34083
3.31222
3.287
3.26598
3.25024
3.24131
3.45498
3.41849
3.38357
3.35053
3.31973
3.29164
3.26687
3.24623
3.23078
3.222
3.42377
3.38817
3.3541
3.32185
3.29179
3.26438
3.24022
3.22008
3.205
3.19645
3.38518
3.35064
3.3176
3.28633
3.25719
3.23062
3.2072
3.18768
3.17308
3.16479
3.33943
3.30612
3.27427
3.24415
3.2161
3.19054
3.16801
3.14924
3.13519
3.12722
3.2867
3.25478
3.22433
3.19555
3.16877
3.14437
3.12288
3.10496
3.09157
3.08396
3.22704
3.19682
3.168
3.14079
3.11547
3.0924
3.07207
3.05514
3.04247
3.03528
3.16063
3.13252
3.10562
3.08019
3.0565
3.03492
3.0159
3.00005
2.9882
2.98147
4.42073
4.37112
4.32176
4.27266
4.22382
4.17526
4.127
4.07905
4.03144
3.98419
3.93733
3.89089
3.84492
3.79946
3.75458
3.71033
3.6668
3.62409
3.58232
3.54162
4.4201
4.37017
4.32048
4.27105
4.22188
4.17299
4.12439
4.0761
4.02815
3.98055
3.93334
3.88655
3.84022
3.79438
3.7491
3.70444
3.66048
3.61732
3.57505
3.53381
4.41885
4.36827
4.31794
4.26785
4.21802
4.16846
4.11919
4.07023
4.02159
3.97331
3.9254
3.8779
3.83083
3.78425
3.73819
3.69272
3.6479
3.60381
3.56057
3.51827
4.41701
4.36547
4.31416
4.26309
4.21227
4.16172
4.11145
4.06148
4.01182
3.9625
3.91355
3.86498
3.81683
3.76913
3.72192
3.67524
3.62914
3.5837
3.539
3.49513
4.41461
4.36179
4.3092
4.25684
4.20472
4.15285
4.10125
4.04993
3.99892
3.94823
3.89788
3.8479
3.79831
3.74913
3.70039
3.65213
3.60436
3.55714
3.51052
3.46458
4.41169
4.3573
4.30312
4.24916
4.19543
4.14193
4.08868
4.0357
3.983
3.9306
3.87851
3.82677
3.77538
3.72437
3.67376
3.62355
3.57373
3.52434
3.47536
3.42685
4.4083
4.35204
4.29598
4.24013
4.1845
4.12908
4.07389
4.01894
3.96423
3.90979
3.85564
3.80178
3.74825
3.69505
3.64219
3.58967
3.53747
3.48553
3.43379
3.3822
4.40447
4.34607
4.28786
4.22985
4.17204
4.11442
4.05701
3.9998
3.94281
3.88604
3.8295
3.77321
3.71718
3.66142
3.60594
3.55073
3.49574
3.4409
3.38602
3.33084
4.40026
4.33945
4.27883
4.2184
4.15816
4.09809
4.03821
3.97849
3.91895
3.85958
3.80039
3.74137
3.68254
3.62388
3.5654
3.50706
3.44881
3.39057
3.33207
3.27274
4.39573
4.3322
4.26894
4.20587
4.14297
4.08023
4.01763
3.95517
3.89285
3.83065
3.76856
3.70659
3.6447
3.58287
3.52106
3.4592
3.39717
3.33478
3.27168
3.20755
4.39137
4.32656
4.26193
4.19746
4.1331
4.06886
4.00472
3.94066
3.87669
3.81278
3.74891
3.68506
3.62119
3.55724
3.49315
3.42879
3.364
3.29855
3.23214
3.16457
4.38759
4.32289
4.25824
4.19367
4.12915
4.0647
4.00029
3.93591
3.87155
3.80719
3.7428
3.67834
3.61376
3.54901
3.484
3.4186
3.35267
3.286
3.21835
3.14947
4.38385
4.31917
4.25449
4.18981
4.12515
4.06049
3.99583
3.93115
3.86642
3.80164
3.73675
3.67173
3.60652
3.54105
3.47523
3.40896
3.34208
3.27442
3.20578
3.13591
4.38015
4.31546
4.25072
4.18595
4.12114
4.05629
3.99139
3.92642
3.86136
3.79618
3.73084
3.66531
3.59953
3.53343
3.46693
3.39991
3.33226
3.26383
3.19443
3.12388
4.3765
4.31178
4.24699
4.18212
4.11718
4.05215
3.98702
3.92179
3.85641
3.79087
3.72513
3.65915
3.59287
3.52622
3.45913
3.39151
3.32324
3.25419
3.18424
3.11323
4.37293
4.30818
4.24333
4.17837
4.11329
4.0481
3.98277
3.91729
3.85163
3.78577
3.71967
3.65328
3.58657
3.51945
3.45188
3.38375
3.31498
3.24547
3.17511
3.10378
4.36946
4.30469
4.23978
4.17473
4.10953
4.04418
3.97867
3.91297
3.84705
3.7809
3.71448
3.64775
3.58066
3.51315
3.44517
3.37663
3.30747
3.2376
3.16694
3.0954
4.36613
4.30133
4.23636
4.17123
4.10593
4.04044
3.97475
3.90885
3.84271
3.77631
3.70961
3.64258
3.57516
3.50732
3.439
3.37014
3.30067
3.23052
3.15964
3.08795
4.36296
4.29813
4.23311
4.16791
4.1025
4.03689
3.97105
3.90498
3.83864
3.77201
3.70507
3.63778
3.5701
3.50198
3.43338
3.36425
3.29454
3.22419
3.15314
3.08136
4.35996
4.29511
4.23006
4.16478
4.09929
4.03356
3.9676
3.90136
3.83485
3.76804
3.70089
3.63337
3.56546
3.49712
3.42829
3.35895
3.28905
3.21854
3.14738
3.07555
4.35718
4.29231
4.22721
4.16188
4.09631
4.03048
3.9644
3.89803
3.83137
3.76439
3.69706
3.62936
3.56126
3.49273
3.42372
3.35421
3.28416
3.21354
3.1423
3.07044
4.35462
4.28973
4.2246
4.15922
4.09357
4.02767
3.96148
3.895
3.82821
3.76108
3.69361
3.62576
3.5575
3.48881
3.41966
3.35001
3.27985
3.20914
3.13786
3.06598
4.3523
4.2874
4.22224
4.15681
4.09111
4.02513
3.95885
3.89227
3.82537
3.75813
3.69053
3.62255
3.55417
3.48535
3.41608
3.34633
3.27609
3.20531
3.134
3.06213
4.35025
4.28533
4.22014
4.15467
4.08892
4.02288
3.95653
3.88987
3.82288
3.75554
3.68784
3.61975
3.55126
3.48235
3.41298
3.34316
3.27284
3.20203
3.13069
3.05883
4.34846
4.28353
4.21832
4.15282
4.08703
4.02094
3.95453
3.8878
3.82073
3.75331
3.68553
3.61736
3.54878
3.47979
3.41035
3.34046
3.2701
3.19926
3.12792
3.05607
4.34696
4.28202
4.21679
4.15127
4.08544
4.0193
3.95285
3.88606
3.81894
3.75145
3.6836
3.61536
3.54672
3.47767
3.40818
3.33824
3.26785
3.19698
3.12564
3.05381
4.34574
4.2808
4.21556
4.15001
4.08416
4.01799
3.9515
3.88467
3.8175
3.74996
3.68206
3.61377
3.54508
3.47598
3.40645
3.33648
3.26606
3.19518
3.12384
3.05203
4.34483
4.27988
4.21463
4.14907
4.08319
4.017
3.95048
3.88362
3.81641
3.74884
3.6809
3.61258
3.54385
3.47472
3.40516
3.33516
3.26473
3.19384
3.1225
3.05071
4.34421
4.27926
4.214
4.14843
4.08255
4.01634
3.9498
3.88292
3.81569
3.7481
3.68013
3.61178
3.54304
3.47388
3.4043
3.33429
3.26384
3.19295
3.12162
3.04984
4.3439
4.27895
4.21369
4.14812
4.08222
4.01601
3.94946
3.88257
3.81533
3.74772
3.67975
3.61139
3.54263
3.47346
3.40387
3.33386
3.2634
3.19251
3.12118
3.0494
3.0933
3.01494
2.93187
2.84444
2.75303
2.65817
2.56042
2.46042
2.35881
2.25623
3.07724
2.99989
2.91822
2.83217
2.74222
2.64896
2.55301
2.45497
2.35544
2.25503
3.06328
2.98651
2.90581
2.82098
2.73242
2.64068
2.54637
2.45009
2.35243
2.25395
3.05115
2.97476
2.89466
2.81082
2.72349
2.63315
2.54036
2.44569
2.34972
2.25297
3.04048
2.96436
2.88471
2.80165
2.71538
2.62629
2.53489
2.4417
2.34726
2.25208
3.03102
2.95511
2.87583
2.79339
2.70802
2.62005
2.5299
2.43805
2.34501
2.25127
3.0226
2.94685
2.86788
2.78597
2.70136
2.61436
2.52533
2.43471
2.34295
2.25051
3.01512
2.93944
2.86074
2.77927
2.69533
2.60918
2.52116
2.43165
2.34106
2.24982
3.00847
2.93281
2.8543
2.77323
2.68986
2.60447
2.51734
2.42883
2.33931
2.24918
3.00257
2.92686
2.84851
2.76777
2.6849
2.60017
2.51385
2.42624
2.3377
2.24858
2.99735
2.92154
2.84328
2.76281
2.68038
2.59624
2.51064
2.42386
2.33621
2.24803
2.99277
2.91679
2.83856
2.75831
2.67626
2.59265
2.50769
2.42167
2.33484
2.24753
2.98876
2.91256
2.83432
2.75423
2.6725
2.58935
2.50498
2.41964
2.33357
2.24706
2.9853
2.90882
2.8305
2.75053
2.66907
2.58632
2.50249
2.41777
2.3324
2.24662
2.98234
2.90553
2.82709
2.74717
2.66593
2.58355
2.50018
2.41604
2.33131
2.24622
2.97985
2.90266
2.82405
2.74414
2.66307
2.58099
2.49806
2.41444
2.33031
2.24586
2.97781
2.90019
2.82136
2.74141
2.66047
2.57865
2.4961
2.41296
2.32938
2.24552
2.97621
2.89811
2.819
2.73897
2.6581
2.57651
2.4943
2.41159
2.32852
2.24521
2.97503
2.8964
2.81697
2.7368
2.65597
2.57455
2.49264
2.41033
2.32773
2.24493
2.97426
2.89505
2.81525
2.73491
2.65406
2.57278
2.49113
2.40918
2.327
2.24468
)
;

boundaryField
{
    down
    {
        type            symmetryPlane;
    }
    right
    {
        type            fixedValue;
        value           uniform 0;
    }
    up
    {
        type            symmetryPlane;
    }
    left
    {
        type            zeroGradient;
    }
    cylinder
    {
        type            symmetry;
    }
    defaultFaces
    {
        type            empty;
    }
}


// ************************************************************************* //
