/*--------------------------------*- C++ -*----------------------------------*\
| =========                 |                                                 |
| \\      /  F ield         | OpenFOAM: The Open Source CFD Toolbox           |
|  \\    /   O peration     | Version:  5.x                                   |
|   \\  /    A nd           | Web:      www.OpenFOAM.org                      |
|    \\/     M anipulation  |                                                 |
\*---------------------------------------------------------------------------*/
FoamFile
{
    version     2.0;
    format      ascii;
    class       pointScalarField;
    location    "0";
    object      streamFunction;
}
// * * * * * * * * * * * * * * * * * * * * * * * * * * * * * * * * * * * * * //

dimensions      [0 3 -1 0 0 0 0];

internalField   nonuniform List<scalar> 
4222
(
3.22e-06
0.0707294
0.135863
0.196678
0.25409
0.308774
0.361237
0.411872
0.460984
0.508814
0.55554
3.2e-06
0.0761285
0.146238
0.211705
0.273516
0.332398
0.388896
0.443432
0.496332
0.547859
0.598222
3.25e-06
0.0810644
0.155723
0.225443
0.291276
0.353994
0.414179
0.472277
0.528634
0.58353
0.63719
3.87e-06
0.0855046
0.164256
0.237802
0.307252
0.373423
0.436924
0.498226
0.557688
0.615595
0.672165
4.01e-06
0.0894194
0.171779
0.248699
0.321342
0.390559
0.45699
0.521125
0.58334
0.643933
0.703134
4.32e-06
0.0927826
0.178243
0.258063
0.33345
0.405289
0.474244
0.540825
0.605424
0.668353
0.729859
4.25e-06
0.0955714
0.183603
0.265829
0.343494
0.417511
0.488565
0.557183
0.623772
0.688656
0.752094
4.52e-06
0.0977662
0.187822
0.271942
0.351402
0.427136
0.499846
0.570073
0.638235
0.704666
0.769633
4.33e-06
0.0993518
0.19087
0.276359
0.357116
0.434092
0.508
0.579392
0.648692
0.716243
0.782316
4.81e-06
0.100317
0.192725
0.279048
0.360595
0.438326
0.512964
0.585065
0.655058
0.723289
0.790035
4.317e-06
0.100654
0.193374
0.279988
0.361811
0.439806
0.514698
0.587046
0.657279
0.725745
0.792722
3.22e-06
0.0707294
0.135863
0.196678
0.25409
0.308774
0.361237
0.411872
0.460984
0.508814
0.55554
3.2e-06
0.0761285
0.146238
0.211705
0.273516
0.332398
0.388896
0.443432
0.496332
0.547859
0.598222
3.25e-06
0.0810644
0.155723
0.225443
0.291276
0.353994
0.414179
0.472277
0.528634
0.58353
0.63719
3.87e-06
0.0855046
0.164256
0.237802
0.307252
0.373423
0.436924
0.498226
0.557688
0.615595
0.672165
4.01e-06
0.0894194
0.171779
0.248699
0.321342
0.390559
0.45699
0.521125
0.58334
0.643933
0.703134
4.32e-06
0.0927826
0.178243
0.258063
0.33345
0.405289
0.474244
0.540825
0.605424
0.668353
0.729859
4.25e-06
0.0955714
0.183603
0.265829
0.343494
0.417511
0.488565
0.557183
0.623772
0.688656
0.752094
4.52e-06
0.0977662
0.187822
0.271942
0.351402
0.427136
0.499846
0.570073
0.638235
0.704666
0.769633
4.33e-06
0.0993518
0.19087
0.276359
0.357116
0.434092
0.508
0.579392
0.648692
0.716243
0.782316
4.81e-06
0.100317
0.192725
0.279048
0.360595
0.438326
0.512964
0.585065
0.655058
0.723289
0.790035
4.317e-06
0.100654
0.193374
0.279988
0.361811
0.439806
0.514698
0.587046
0.657279
0.725745
0.792722
0
0
-3.9e-07
-8.8e-07
-1.15e-06
-1.16e-06
-1.13e-06
-1.21e-06
-1.18e-06
-1.13e-06
-1.12e-06
0
0.00779971
0.0149788
0.0216761
0.0279913
0.0339979
0.0397514
0.0452946
0.0506617
0.0558807
0.0609751
9e-07
0.0155551
0.0298729
0.0432301
0.0558253
0.0678047
0.0792788
0.0903326
0.101033
0.111436
0.121585
1.42e-06
0.0232217
0.0445969
0.0645386
0.0833432
0.101229
0.118359
0.13486
0.150831
0.166351
0.181488
1.91e-06
0.0307554
0.0590663
0.08548
0.110389
0.134082
0.156773
0.17863
0.19978
0.220326
0.240354
2.16e-06
0.0381123
0.073197
0.105933
0.136808
0.166179
0.19431
0.221407
0.247623
0.273081
0.297879
2.33e-06
0.0452485
0.0869053
0.125779
0.162447
0.197335
0.230759
0.262958
0.294113
0.324362
0.353809
2.21e-06
0.0521208
0.100108
0.144895
0.187151
0.227366
0.265906
0.30305
0.339007
0.373933
0.407937
2.17e-06
0.0586862
0.112722
0.163162
0.210762
0.256078
0.299526
0.341428
0.382028
0.421522
0.460049
2.34e-06
0.0649025
0.124667
0.180461
0.233126
0.283277
0.331381
0.3778
0.422821
0.46669
0.509644
0
0
-3.9e-07
-8.8e-07
-1.15e-06
-1.16e-06
-1.13e-06
-1.21e-06
-1.18e-06
-1.13e-06
-1.12e-06
0
0.00779971
0.0149788
0.0216761
0.0279913
0.0339979
0.0397514
0.0452946
0.0506617
0.0558807
0.0609751
9e-07
0.0155551
0.0298729
0.0432301
0.0558253
0.0678047
0.0792788
0.0903326
0.101033
0.111436
0.121585
1.42e-06
0.0232217
0.0445969
0.0645386
0.0833432
0.101229
0.118359
0.13486
0.150831
0.166351
0.181488
1.91e-06
0.0307554
0.0590663
0.08548
0.110389
0.134082
0.156773
0.17863
0.19978
0.220326
0.240354
2.16e-06
0.0381123
0.073197
0.105933
0.136808
0.166179
0.19431
0.221407
0.247623
0.273081
0.297879
2.33e-06
0.0452485
0.0869053
0.125779
0.162447
0.197335
0.230759
0.262958
0.294113
0.324362
0.353809
2.21e-06
0.0521208
0.100108
0.144895
0.187151
0.227366
0.265906
0.30305
0.339007
0.373933
0.407937
2.17e-06
0.0586862
0.112722
0.163162
0.210762
0.256078
0.299526
0.341428
0.382028
0.421522
0.460049
2.34e-06
0.0649025
0.124667
0.180461
0.233126
0.283277
0.331381
0.3778
0.422821
0.46669
0.509644
-1.15e-06
-1.06e-06
-1.1e-06
-9.47e-07
-9.7e-07
-8.63e-07
-8.27e-07
-6.78e-07
-7.53e-07
-6.53e-07
-6.011e-07
-5.4289e-07
-6.0559e-07
-4.8289e-07
-5.1889e-07
-4.3589e-07
-5.5789e-07
-4.5289e-07
-5.4489e-07
-5.3889e-07
0.0625264
0.0637974
0.0648328
0.0656692
0.066337
0.066862
0.0672657
0.0675658
0.0677771
0.0679114
0.0679781
0.0679845
0.0679363
0.0678381
0.0676935
0.0675052
0.0672753
0.0670056
0.0666973
0.0663509
0.124693
0.127248
0.129336
0.131028
0.132385
0.133458
0.13429
0.134916
0.135365
0.135661
0.135821
0.13586
0.135789
0.135617
0.135352
0.134998
0.134561
0.134044
0.133449
0.132779
0.186169
0.190036
0.193206
0.195788
0.197872
0.199536
0.200842
0.201844
0.202584
0.203093
0.203398
0.203521
0.203477
0.203279
0.202939
0.202465
0.201865
0.201144
0.200307
0.199356
0.246624
0.251837
0.256131
0.259652
0.262522
0.264842
0.266696
0.26815
0.269257
0.270057
0.270584
0.270862
0.270915
0.27076
0.270413
0.269885
0.269188
0.268329
0.267315
0.266149
0.305747
0.312343
0.317812
0.322337
0.326072
0.32914
0.331641
0.333649
0.335224
0.336412
0.337253
0.337779
0.338018
0.337992
0.337724
0.337229
0.336521
0.335611
0.334507
0.333216
0.363257
0.371267
0.377967
0.383583
0.388293
0.392229
0.395498
0.398178
0.400333
0.402018
0.403279
0.404156
0.404685
0.404894
0.404811
0.404456
0.403846
0.402994
0.401911
0.400602
0.418906
0.428345
0.43636
0.443192
0.449015
0.453955
0.458117
0.461583
0.464429
0.46672
0.468514
0.469858
0.470798
0.471367
0.471597
0.471511
0.471131
0.47047
0.46954
0.468348
0.47247
0.483369
0.492847
0.501054
0.508122
0.514173
0.519324
0.523674
0.527317
0.530329
0.532781
0.534728
0.536221
0.537297
0.537992
0.538331
0.538337
0.538023
0.537404
0.536485
0.523642
0.53621
0.547348
0.557032
0.565405
0.572627
0.578845
0.584181
0.588744
0.592619
0.595883
0.598596
0.600811
0.602569
0.603906
0.604849
0.60542
0.605635
0.605506
0.605039
0.571411
0.585812
0.598706
0.610036
0.619931
0.628558
0.636082
0.642639
0.648349
0.653308
0.657599
0.661288
0.664432
0.667074
0.669255
0.671001
0.672338
0.67328
0.673841
0.674027
-1.15e-06
-1.06e-06
-1.1e-06
-9.47e-07
-9.7e-07
-8.63e-07
-8.27e-07
-6.78e-07
-7.53e-07
-6.53e-07
-6.011e-07
-5.4289e-07
-6.0559e-07
-4.8289e-07
-5.1889e-07
-4.3589e-07
-5.5789e-07
-4.5289e-07
-5.4489e-07
-5.3889e-07
0.0625264
0.0637974
0.0648328
0.0656692
0.066337
0.066862
0.0672657
0.0675658
0.0677771
0.0679114
0.0679781
0.0679845
0.0679363
0.0678381
0.0676935
0.0675052
0.0672753
0.0670056
0.0666973
0.0663509
0.124693
0.127248
0.129336
0.131028
0.132385
0.133458
0.13429
0.134916
0.135365
0.135661
0.135821
0.13586
0.135789
0.135617
0.135352
0.134998
0.134561
0.134044
0.133449
0.132779
0.186169
0.190036
0.193206
0.195788
0.197872
0.199536
0.200842
0.201844
0.202584
0.203093
0.203398
0.203521
0.203477
0.203279
0.202939
0.202465
0.201865
0.201144
0.200307
0.199356
0.246624
0.251837
0.256131
0.259652
0.262522
0.264842
0.266696
0.26815
0.269257
0.270057
0.270584
0.270862
0.270915
0.27076
0.270413
0.269885
0.269188
0.268329
0.267315
0.266149
0.305747
0.312343
0.317812
0.322337
0.326072
0.32914
0.331641
0.333649
0.335224
0.336412
0.337253
0.337779
0.338018
0.337992
0.337724
0.337229
0.336521
0.335611
0.334507
0.333216
0.363257
0.371267
0.377967
0.383583
0.388293
0.392229
0.395498
0.398178
0.400333
0.402018
0.403279
0.404156
0.404685
0.404894
0.404811
0.404456
0.403846
0.402994
0.401911
0.400602
0.418906
0.428345
0.43636
0.443192
0.449015
0.453955
0.458117
0.461583
0.464429
0.46672
0.468514
0.469858
0.470798
0.471367
0.471597
0.471511
0.471131
0.47047
0.46954
0.468348
0.47247
0.483369
0.492847
0.501054
0.508122
0.514173
0.519324
0.523674
0.527317
0.530329
0.532781
0.534728
0.536221
0.537297
0.537992
0.538331
0.538337
0.538023
0.537404
0.536485
0.523642
0.53621
0.547348
0.557032
0.565405
0.572627
0.578845
0.584181
0.588744
0.592619
0.595883
0.598596
0.600811
0.602569
0.603906
0.604849
0.60542
0.605635
0.605506
0.605039
0.571411
0.585812
0.598706
0.610036
0.619931
0.628558
0.636082
0.642639
0.648349
0.653308
0.657599
0.661288
0.664432
0.667074
0.669255
0.671001
0.672338
0.67328
0.673841
0.674027
0.62417
0.638751
0.651977
0.663906
0.674556
0.683999
0.692334
0.699674
0.70612
0.711767
0.716695
0.720977
0.724668
0.727823
0.730479
0.732675
0.734435
0.735783
0.736734
0.737301
0.737489
0.694415
0.707449
0.71944
0.730385
0.740283
0.749172
0.757106
0.764159
0.7704
0.775903
0.78073
0.784943
0.788587
0.79171
0.794346
0.796529
0.798281
0.799625
0.800573
0.801138
0.801326
0.765686
0.777188
0.787953
0.797909
0.807022
0.815299
0.822761
0.829452
0.835419
0.840714
0.845382
0.849475
0.853029
0.856083
0.858668
0.860813
0.862537
0.863861
0.864796
0.865354
0.865539
0.837537
0.847665
0.857277
0.866275
0.874601
0.882238
0.889187
0.89547
0.901111
0.906148
0.910613
0.914544
0.917971
0.920925
0.923432
0.925516
0.927194
0.928484
0.929396
0.929941
0.930122
0.909733
0.918659
0.927218
0.93531
0.942869
0.949865
0.956282
0.962126
0.967408
0.972152
0.976379
0.980116
0.983385
0.986214
0.988619
0.990623
0.99224
0.993484
0.994365
0.994891
0.995066
0.98215
0.990022
0.997627
1.00488
1.0117
1.01807
1.02395
1.02934
1.03425
1.03867
1.04264
1.04615
1.04924
1.05192
1.05421
1.05612
1.05766
1.05885
1.05969
1.06019
1.06036
1.05471
1.06165
1.06839
1.07486
1.081
1.08676
1.09211
1.09705
1.10156
1.10566
1.10934
1.11262
1.11551
1.11803
1.12018
1.12198
1.12343
1.12456
1.12535
1.12583
1.12599
1.12737
1.13348
1.13944
1.14519
1.15067
1.15585
1.16069
1.16517
1.16929
1.17305
1.17644
1.17947
1.18216
1.18449
1.1865
1.18818
1.18954
1.19059
1.19134
1.19178
1.19193
1.20009
1.20544
1.21069
1.21577
1.22065
1.22527
1.22962
1.23366
1.2374
1.24081
1.2439
1.24668
1.24914
1.25129
1.25314
1.2547
1.25595
1.25693
1.25762
1.25804
1.25818
1.27284
1.27751
1.2821
1.28657
1.29088
1.29498
1.29885
1.30247
1.30581
1.30889
1.31169
1.3142
1.31644
1.3184
1.32009
1.3215
1.32266
1.32355
1.32419
1.32457
1.32469
1.3456
1.34964
1.35364
1.35754
1.36131
1.36492
1.36833
1.37153
1.37451
1.37725
1.37975
1.382
1.38401
1.38578
1.3873
1.38858
1.38962
1.39043
1.391
1.39135
1.39146
1.41835
1.42182
1.42527
1.42864
1.43191
1.43505
1.43803
1.44083
1.44344
1.44585
1.44806
1.45005
1.45183
1.4534
1.45475
1.45589
1.45682
1.45754
1.45805
1.45836
1.45846
1.49109
1.49404
1.49697
1.49985
1.50264
1.50533
1.5079
1.51031
1.51257
1.51466
1.51658
1.51831
1.51986
1.52123
1.52241
1.52341
1.52423
1.52486
1.52531
1.52558
1.52567
1.56381
1.56627
1.56872
1.57113
1.57348
1.57575
1.57791
1.57996
1.58187
1.58365
1.58527
1.58675
1.58808
1.58925
1.59026
1.59112
1.59181
1.59236
1.59274
1.59298
1.59305
1.6365
1.63851
1.64051
1.64248
1.64441
1.64627
1.64804
1.64973
1.65131
1.65278
1.65412
1.65535
1.65645
1.65742
1.65826
1.65898
1.65956
1.66001
1.66034
1.66053
1.66059
1.70918
1.71075
1.71233
1.71388
1.7154
1.71687
1.71827
1.71961
1.72086
1.72203
1.7231
1.72408
1.72495
1.72573
1.7264
1.72697
1.72743
1.7278
1.72806
1.72821
1.72826
1.78183
1.783
1.78416
1.78531
1.78644
1.78753
1.78857
1.78957
1.7905
1.79137
1.79217
1.7929
1.79355
1.79413
1.79464
1.79507
1.79541
1.79569
1.79588
1.796
1.79604
1.85447
1.85524
1.85601
1.85677
1.85751
1.85823
1.85893
1.85958
1.8602
1.86078
1.86131
1.8618
1.86223
1.86262
1.86295
1.86324
1.86347
1.86365
1.86378
1.86386
1.86388
1.9271
1.92748
1.92786
1.92824
1.92861
1.92897
1.92931
1.92964
1.92995
1.93024
1.9305
1.93074
1.93096
1.93115
1.93132
1.93146
1.93158
1.93167
1.93173
1.93177
1.93179
1.99972
1.99972
1.99972
1.99972
1.99972
1.99972
1.99972
1.99972
1.99971
1.99971
1.99971
1.99971
1.99971
1.99971
1.99971
1.99971
1.99971
1.99971
1.99971
1.99971
1.99971
0.62417
0.638751
0.651977
0.663906
0.674556
0.683999
0.692334
0.699674
0.70612
0.711767
0.716695
0.720977
0.724668
0.727823
0.730479
0.732675
0.734435
0.735783
0.736734
0.737301
0.737489
0.694415
0.707449
0.71944
0.730385
0.740283
0.749172
0.757106
0.764159
0.7704
0.775903
0.78073
0.784943
0.788587
0.79171
0.794346
0.796529
0.798281
0.799625
0.800573
0.801138
0.801326
0.765686
0.777188
0.787953
0.797909
0.807022
0.815299
0.822761
0.829452
0.835419
0.840714
0.845382
0.849475
0.853029
0.856083
0.858668
0.860813
0.862537
0.863861
0.864796
0.865354
0.865539
0.837537
0.847665
0.857277
0.866275
0.874601
0.882238
0.889187
0.89547
0.901111
0.906148
0.910613
0.914544
0.917971
0.920925
0.923432
0.925516
0.927194
0.928484
0.929396
0.929941
0.930122
0.909733
0.918659
0.927218
0.93531
0.942869
0.949865
0.956282
0.962126
0.967408
0.972152
0.976379
0.980116
0.983385
0.986214
0.988619
0.990623
0.99224
0.993484
0.994365
0.994891
0.995066
0.98215
0.990022
0.997627
1.00488
1.0117
1.01807
1.02395
1.02934
1.03425
1.03867
1.04264
1.04615
1.04924
1.05192
1.05421
1.05612
1.05766
1.05885
1.05969
1.06019
1.06036
1.05471
1.06165
1.06839
1.07486
1.081
1.08676
1.09211
1.09705
1.10156
1.10566
1.10934
1.11262
1.11551
1.11803
1.12018
1.12198
1.12343
1.12456
1.12535
1.12583
1.12599
1.12737
1.13348
1.13944
1.14519
1.15067
1.15585
1.16069
1.16517
1.16929
1.17305
1.17644
1.17947
1.18216
1.18449
1.1865
1.18818
1.18954
1.19059
1.19134
1.19178
1.19193
1.20009
1.20544
1.21069
1.21577
1.22065
1.22527
1.22962
1.23366
1.2374
1.24081
1.2439
1.24668
1.24914
1.25129
1.25314
1.2547
1.25595
1.25693
1.25762
1.25804
1.25818
1.27284
1.27751
1.2821
1.28657
1.29088
1.29498
1.29885
1.30247
1.30581
1.30889
1.31169
1.3142
1.31644
1.3184
1.32009
1.3215
1.32266
1.32355
1.32419
1.32457
1.32469
1.3456
1.34964
1.35364
1.35754
1.36131
1.36492
1.36833
1.37153
1.37451
1.37725
1.37975
1.382
1.38401
1.38578
1.3873
1.38858
1.38962
1.39043
1.391
1.39135
1.39146
1.41835
1.42182
1.42527
1.42864
1.43191
1.43505
1.43803
1.44083
1.44344
1.44585
1.44806
1.45005
1.45183
1.4534
1.45475
1.45589
1.45682
1.45754
1.45805
1.45836
1.45846
1.49109
1.49404
1.49697
1.49985
1.50264
1.50533
1.5079
1.51031
1.51257
1.51466
1.51658
1.51831
1.51986
1.52123
1.52241
1.52341
1.52423
1.52486
1.52531
1.52558
1.52567
1.56381
1.56627
1.56872
1.57113
1.57348
1.57575
1.57791
1.57996
1.58187
1.58365
1.58527
1.58675
1.58808
1.58925
1.59026
1.59112
1.59181
1.59236
1.59274
1.59298
1.59305
1.6365
1.63851
1.64051
1.64248
1.64441
1.64627
1.64804
1.64973
1.65131
1.65278
1.65412
1.65535
1.65645
1.65742
1.65826
1.65898
1.65956
1.66001
1.66034
1.66053
1.66059
1.70918
1.71075
1.71233
1.71388
1.7154
1.71687
1.71827
1.71961
1.72086
1.72203
1.7231
1.72408
1.72495
1.72573
1.7264
1.72697
1.72743
1.7278
1.72806
1.72821
1.72826
1.78183
1.783
1.78416
1.78531
1.78644
1.78753
1.78857
1.78957
1.7905
1.79137
1.79217
1.7929
1.79355
1.79413
1.79464
1.79507
1.79541
1.79569
1.79588
1.796
1.79604
1.85447
1.85524
1.85601
1.85677
1.85751
1.85823
1.85893
1.85958
1.8602
1.86078
1.86131
1.8618
1.86223
1.86262
1.86295
1.86324
1.86347
1.86365
1.86378
1.86386
1.86388
1.9271
1.92748
1.92786
1.92824
1.92861
1.92897
1.92931
1.92964
1.92995
1.93024
1.9305
1.93074
1.93096
1.93115
1.93132
1.93146
1.93158
1.93167
1.93173
1.93177
1.93179
1.99972
1.99972
1.99972
1.99972
1.99972
1.99972
1.99972
1.99972
1.99971
1.99971
1.99971
1.99971
1.99971
1.99971
1.99971
1.99971
1.99971
1.99971
1.99971
1.99971
1.99971
0.858422
0.855775
0.848173
0.83568
0.818399
0.796475
0.770096
0.739487
0.704876
0.666324
0.923039
0.920458
0.913051
0.900887
0.884068
0.862741
0.837085
0.807293
0.773509
0.735737
0.98672
0.984229
0.977082
0.965351
0.949138
0.928578
0.903824
0.875017
0.842247
0.805651
1.04959
1.0472
1.04037
1.02914
1.01363
0.993939
0.970189
0.942482
0.910939
0.875825
1.11175
1.10948
1.10298
1.09232
1.07757
1.05881
1.03615
1.00968
0.979579
0.946155
1.17328
1.17114
1.16501
1.15494
1.14098
1.12323
1.10174
1.07665
1.04816
1.01657
1.23426
1.23225
1.2265
1.21704
1.20393
1.18723
1.16702
1.14342
1.11666
1.08702
1.29475
1.29288
1.2875
1.2787
1.26647
1.25088
1.23201
1.21001
1.18508
1.15748
1.35479
1.35306
1.34811
1.33996
1.32865
1.31421
1.29676
1.27643
1.2534
1.2279
1.41448
1.41289
1.40836
1.40089
1.39051
1.37728
1.3613
1.34269
1.32163
1.29829
1.47384
1.4724
1.46829
1.46151
1.45211
1.44012
1.42564
1.4088
1.38975
1.36864
1.53292
1.53164
1.52795
1.52189
1.51347
1.50276
1.48982
1.47479
1.45778
1.43892
1.59176
1.59063
1.58739
1.58205
1.57464
1.56522
1.55386
1.54065
1.52571
1.50916
1.6504
1.64942
1.64663
1.64203
1.63565
1.62754
1.61777
1.60641
1.59357
1.57934
1.70887
1.70805
1.70571
1.70186
1.69652
1.68974
1.68157
1.67209
1.66136
1.64948
1.7672
1.76654
1.76466
1.76157
1.75728
1.75184
1.74529
1.73769
1.72909
1.71957
1.82542
1.82493
1.82351
1.82118
1.81796
1.81387
1.80895
1.80324
1.79678
1.78963
1.88357
1.88323
1.88229
1.88073
1.87858
1.87584
1.87255
1.86874
1.86444
1.85967
1.94166
1.94149
1.94102
1.94024
1.93915
1.93778
1.93614
1.93423
1.93208
1.9297
1.99972
1.99972
1.99972
1.99972
1.99972
1.99971
1.99971
1.99971
1.99971
1.99972
0.858422
0.855775
0.848173
0.83568
0.818399
0.796475
0.770096
0.739487
0.704876
0.666324
0.923039
0.920458
0.913051
0.900887
0.884068
0.862741
0.837085
0.807293
0.773509
0.735737
0.98672
0.984229
0.977082
0.965351
0.949138
0.928578
0.903824
0.875017
0.842247
0.805651
1.04959
1.0472
1.04037
1.02914
1.01363
0.993939
0.970189
0.942482
0.910939
0.875825
1.11175
1.10948
1.10298
1.09232
1.07757
1.05881
1.03615
1.00968
0.979579
0.946155
1.17328
1.17114
1.16501
1.15494
1.14098
1.12323
1.10174
1.07665
1.04816
1.01657
1.23426
1.23225
1.2265
1.21704
1.20393
1.18723
1.16702
1.14342
1.11666
1.08702
1.29475
1.29288
1.2875
1.2787
1.26647
1.25088
1.23201
1.21001
1.18508
1.15748
1.35479
1.35306
1.34811
1.33996
1.32865
1.31421
1.29676
1.27643
1.2534
1.2279
1.41448
1.41289
1.40836
1.40089
1.39051
1.37728
1.3613
1.34269
1.32163
1.29829
1.47384
1.4724
1.46829
1.46151
1.45211
1.44012
1.42564
1.4088
1.38975
1.36864
1.53292
1.53164
1.52795
1.52189
1.51347
1.50276
1.48982
1.47479
1.45778
1.43892
1.59176
1.59063
1.58739
1.58205
1.57464
1.56522
1.55386
1.54065
1.52571
1.50916
1.6504
1.64942
1.64663
1.64203
1.63565
1.62754
1.61777
1.60641
1.59357
1.57934
1.70887
1.70805
1.70571
1.70186
1.69652
1.68974
1.68157
1.67209
1.66136
1.64948
1.7672
1.76654
1.76466
1.76157
1.75728
1.75184
1.74529
1.73769
1.72909
1.71957
1.82542
1.82493
1.82351
1.82118
1.81796
1.81387
1.80895
1.80324
1.79678
1.78963
1.88357
1.88323
1.88229
1.88073
1.87858
1.87584
1.87255
1.86874
1.86444
1.85967
1.94166
1.94149
1.94102
1.94024
1.93915
1.93778
1.93614
1.93423
1.93208
1.9297
1.99972
1.99972
1.99972
1.99972
1.99972
1.99971
1.99971
1.99971
1.99971
1.99972
0.558968
0.511843
0.463671
0.414213
0.36324
0.310448
0.25544
0.197704
0.136562
0.0710887
4.208e-06
0.601347
0.550658
0.498833
0.445625
0.390783
0.333982
0.274799
0.212683
0.146906
0.0764722
5.408e-06
0.639961
0.58604
0.530897
0.474275
0.415909
0.355454
0.292463
0.226351
0.156344
0.0813846
5.838e-06
0.674568
0.61779
0.559683
0.5
0.438469
0.374733
0.308322
0.238623
0.164818
0.0857951
6.258e-06
0.705172
0.645806
0.585053
0.522657
0.458331
0.391702
0.322278
0.24942
0.172274
0.0896752
6.168e-06
0.731538
0.669905
0.606849
0.542106
0.47537
0.406253
0.334242
0.258674
0.178663
0.093
6.368e-06
0.753423
0.689889
0.624908
0.558209
0.48947
0.418287
0.344133
0.266324
0.183943
0.0957476
5.898e-06
0.770621
0.705585
0.639085
0.570842
0.500526
0.427721
0.351885
0.272316
0.188079
0.0978996
5.838e-06
0.78297
0.716853
0.649257
0.579904
0.508454
0.434483
0.357439
0.27661
0.191042
0.0994413
5.288e-06
0.790359
0.723593
0.65534
0.585321
0.513191
0.438522
0.360756
0.279174
0.192811
0.100362
4.702e-06
0.558968
0.511843
0.463671
0.414213
0.36324
0.310448
0.25544
0.197704
0.136562
0.0710887
4.208e-06
0.601347
0.550658
0.498833
0.445625
0.390783
0.333982
0.274799
0.212683
0.146906
0.0764722
5.408e-06
0.639961
0.58604
0.530897
0.474275
0.415909
0.355454
0.292463
0.226351
0.156344
0.0813846
5.838e-06
0.674568
0.61779
0.559683
0.5
0.438469
0.374733
0.308322
0.238623
0.164818
0.0857951
6.258e-06
0.705172
0.645806
0.585053
0.522657
0.458331
0.391702
0.322278
0.24942
0.172274
0.0896752
6.168e-06
0.731538
0.669905
0.606849
0.542106
0.47537
0.406253
0.334242
0.258674
0.178663
0.093
6.368e-06
0.753423
0.689889
0.624908
0.558209
0.48947
0.418287
0.344133
0.266324
0.183943
0.0957476
5.898e-06
0.770621
0.705585
0.639085
0.570842
0.500526
0.427721
0.351885
0.272316
0.188079
0.0978996
5.838e-06
0.78297
0.716853
0.649257
0.579904
0.508454
0.434483
0.357439
0.27661
0.191042
0.0994413
5.288e-06
0.790359
0.723593
0.65534
0.585321
0.513191
0.438522
0.360756
0.279174
0.192811
0.100362
4.702e-06
-0.00024497
-0.00023647
-0.00017887
-0.00014811
-0.00012099
-9.531e-05
-7.129e-05
-4.8154e-05
-2.58e-05
-6.882e-06
0
0.0615423
0.0563472
0.0510846
0.0456567
0.0400563
0.0342504
0.0281946
0.0218327
0.0150901
0.00786235
-4.872e-06
0.122922
0.11257
0.102029
0.0911815
0.0799907
0.0683899
0.0562913
0.0435829
0.0301155
0.015684
-3.182e-06
0.183519
0.16809
0.152347
0.136153
0.119443
0.102119
0.0840513
0.0650725
0.0449608
0.0234118
-1.762e-06
0.242971
0.222581
0.201745
0.180308
0.158183
0.13524
0.11131
0.0861736
0.0595374
0.0309996
-2.52e-07
0.300957
0.275746
0.249948
0.223397
0.195986
0.167558
0.137906
0.10676
0.0737579
0.0384018
9.18e-07
0.357214
0.327324
0.296702
0.265181
0.232635
0.198883
0.163681
0.126709
0.0875362
0.0455735
2.058e-06
0.411536
0.377076
0.341763
0.305423
0.267914
0.229026
0.188477
0.145897
0.100788
0.0524704
2.908e-06
0.463716
0.424734
0.384853
0.343867
0.301597
0.257795
0.212138
0.164203
0.113429
0.0590495
3.568e-06
0.51326
0.469865
0.425621
0.380227
0.333449
0.284998
0.234508
0.18151
0.125379
0.0652689
4.278e-06
-0.00024497
-0.00023647
-0.00017887
-0.00014811
-0.00012099
-9.531e-05
-7.129e-05
-4.8154e-05
-2.58e-05
-6.882e-06
0
0.0615423
0.0563472
0.0510846
0.0456567
0.0400563
0.0342504
0.0281946
0.0218327
0.0150901
0.00786235
-4.872e-06
0.122922
0.11257
0.102029
0.0911815
0.0799907
0.0683899
0.0562913
0.0435829
0.0301155
0.015684
-3.182e-06
0.183519
0.16809
0.152347
0.136153
0.119443
0.102119
0.0840513
0.0650725
0.0449608
0.0234118
-1.762e-06
0.242971
0.222581
0.201745
0.180308
0.158183
0.13524
0.11131
0.0861736
0.0595374
0.0309996
-2.52e-07
0.300957
0.275746
0.249948
0.223397
0.195986
0.167558
0.137906
0.10676
0.0737579
0.0384018
9.18e-07
0.357214
0.327324
0.296702
0.265181
0.232635
0.198883
0.163681
0.126709
0.0875362
0.0455735
2.058e-06
0.411536
0.377076
0.341763
0.305423
0.267914
0.229026
0.188477
0.145897
0.100788
0.0524704
2.908e-06
0.463716
0.424734
0.384853
0.343867
0.301597
0.257795
0.212138
0.164203
0.113429
0.0590495
3.568e-06
0.51326
0.469865
0.425621
0.380227
0.333449
0.284998
0.234508
0.18151
0.125379
0.0652689
4.278e-06
-0.00033224
-0.00025287
-0.000252815
-0.000252701
-0.000252548
-0.000252388
-0.000252271
-0.000252121
-0.000252028
-0.0002519
-0.000251867
-0.000251663
-0.000251639
-0.00025132
-0.000251223
-0.000250773
-0.00025027
-0.00024951
-0.00024871
-0.00024781
0.0703785
0.0701765
0.0702089
0.0702244
0.0702196
0.0701907
0.070134
0.0700453
0.0699197
0.0697516
0.0695343
0.0692596
0.0689174
0.068495
0.0679772
0.0673454
0.0665776
0.0656476
0.0645243
0.0631708
0.141089
0.140586
0.140629
0.140638
0.140606
0.140525
0.140389
0.140187
0.139911
0.139549
0.139089
0.138514
0.137805
0.136936
0.135878
0.134595
0.13304
0.131163
0.128902
0.126183
0.2118
0.210983
0.210993
0.210952
0.210848
0.210671
0.210408
0.210047
0.209573
0.208969
0.208216
0.207291
0.206166
0.204804
0.203163
0.201188
0.198813
0.195959
0.192533
0.188425
0.282511
0.281362
0.281274
0.281116
0.280875
0.280535
0.280081
0.279493
0.278753
0.277837
0.276721
0.275373
0.273758
0.271832
0.26954
0.266813
0.263565
0.25969
0.255064
0.249535
0.353221
0.351712
0.351438
0.351077
0.350612
0.350025
0.349293
0.348395
0.347304
0.34599
0.344422
0.34256
0.340362
0.337777
0.334743
0.331178
0.326984
0.32203
0.316161
0.309182
0.423932
0.422027
0.421456
0.420782
0.419985
0.419044
0.417933
0.416624
0.415083
0.413275
0.411156
0.408681
0.405796
0.402444
0.398553
0.39404
0.388797
0.382686
0.375523
0.367072
0.494643
0.492294
0.49129
0.490167
0.488907
0.487484
0.485871
0.484033
0.481931
0.479521
0.47675
0.473561
0.46989
0.465665
0.460805
0.455219
0.448799
0.441413
0.432884
0.422958
0.565353
0.562505
0.560904
0.559171
0.557291
0.555237
0.552978
0.550474
0.54768
0.544545
0.541008
0.537004
0.532454
0.527271
0.521357
0.514602
0.506885
0.498076
0.488042
0.47662
0.636064
0.632658
0.630259
0.627727
0.625049
0.622194
0.619125
0.615796
0.612156
0.608148
0.603707
0.59876
0.593221
0.586992
0.579958
0.571986
0.562924
0.552603
0.540875
0.52776
0.706775
0.702818
0.699332
0.695786
0.69212
0.68828
0.684216
0.679875
0.675199
0.670125
0.66458
0.658483
0.65174
0.644241
0.635859
0.626444
0.615827
0.603828
0.590317
0.575348
-0.00033224
-0.00025287
-0.000252815
-0.000252701
-0.000252548
-0.000252388
-0.000252271
-0.000252121
-0.000252028
-0.0002519
-0.000251867
-0.000251663
-0.000251639
-0.00025132
-0.000251223
-0.000250773
-0.00025027
-0.00024951
-0.00024871
-0.00024781
0.0703785
0.0701765
0.0702089
0.0702244
0.0702196
0.0701907
0.070134
0.0700453
0.0699197
0.0697516
0.0695343
0.0692596
0.0689174
0.068495
0.0679772
0.0673454
0.0665776
0.0656476
0.0645243
0.0631708
0.141089
0.140586
0.140629
0.140638
0.140606
0.140525
0.140389
0.140187
0.139911
0.139549
0.139089
0.138514
0.137805
0.136936
0.135878
0.134595
0.13304
0.131163
0.128902
0.126183
0.2118
0.210983
0.210993
0.210952
0.210848
0.210671
0.210408
0.210047
0.209573
0.208969
0.208216
0.207291
0.206166
0.204804
0.203163
0.201188
0.198813
0.195959
0.192533
0.188425
0.282511
0.281362
0.281274
0.281116
0.280875
0.280535
0.280081
0.279493
0.278753
0.277837
0.276721
0.275373
0.273758
0.271832
0.26954
0.266813
0.263565
0.25969
0.255064
0.249535
0.353221
0.351712
0.351438
0.351077
0.350612
0.350025
0.349293
0.348395
0.347304
0.34599
0.344422
0.34256
0.340362
0.337777
0.334743
0.331178
0.326984
0.32203
0.316161
0.309182
0.423932
0.422027
0.421456
0.420782
0.419985
0.419044
0.417933
0.416624
0.415083
0.413275
0.411156
0.408681
0.405796
0.402444
0.398553
0.39404
0.388797
0.382686
0.375523
0.367072
0.494643
0.492294
0.49129
0.490167
0.488907
0.487484
0.485871
0.484033
0.481931
0.479521
0.47675
0.473561
0.46989
0.465665
0.460805
0.455219
0.448799
0.441413
0.432884
0.422958
0.565353
0.562505
0.560904
0.559171
0.557291
0.555237
0.552978
0.550474
0.54768
0.544545
0.541008
0.537004
0.532454
0.527271
0.521357
0.514602
0.506885
0.498076
0.488042
0.47662
0.636064
0.632658
0.630259
0.627727
0.625049
0.622194
0.619125
0.615796
0.612156
0.608148
0.603707
0.59876
0.593221
0.586992
0.579958
0.571986
0.562924
0.552603
0.540875
0.52776
0.706775
0.702818
0.699332
0.695786
0.69212
0.68828
0.684216
0.679875
0.675199
0.670125
0.66458
0.658483
0.65174
0.644241
0.635859
0.626444
0.615827
0.603828
0.590317
0.575348
0.771419
0.767631
0.763958
0.760265
0.756473
0.752522
0.748359
0.743929
0.739175
0.734037
0.728449
0.722334
0.715611
0.708185
0.699954
0.690803
0.680614
0.669279
0.656722
0.64292
0.627725
0.836064
0.832327
0.828603
0.824842
0.820985
0.816978
0.812768
0.808305
0.803535
0.798401
0.792843
0.786794
0.780184
0.772936
0.764968
0.756199
0.746548
0.735953
0.724373
0.7118
0.698152
0.900709
0.897007
0.893287
0.889516
0.885647
0.881635
0.877431
0.872989
0.868258
0.863189
0.857727
0.851815
0.845395
0.838405
0.830784
0.822475
0.813428
0.803611
0.793016
0.781668
0.769551
0.965353
0.961702
0.958023
0.954287
0.950454
0.946483
0.942333
0.93796
0.933321
0.92837
0.92306
0.917345
0.911176
0.904505
0.897289
0.889489
0.881079
0.872048
0.862412
0.852218
0.841476
1.03
1.02642
1.02282
1.01915
1.0154
1.01151
1.00746
1.0032
0.998695
0.993909
0.9888
0.983329
0.977457
0.97115
0.964377
0.957114
0.94935
0.941092
0.932366
0.92323
0.913692
1.09464
1.09117
1.08767
1.08412
1.08047
1.0767
1.07279
1.06868
1.06435
1.05977
1.0549
1.04971
1.04418
1.03826
1.03195
1.02524
1.01812
1.0106
1.00273
0.994556
0.98608
1.15929
1.15595
1.15258
1.14916
1.14566
1.14205
1.1383
1.13438
1.13026
1.12592
1.12132
1.11645
1.11127
1.10577
1.09994
1.09377
1.08728
1.08047
1.0734
1.0661
1.05857
1.22393
1.22075
1.21755
1.2143
1.21097
1.20754
1.20399
1.20028
1.1964
1.19232
1.18802
1.18348
1.17868
1.17361
1.16826
1.16264
1.15675
1.15062
1.14428
1.13778
1.13111
1.28858
1.28558
1.28256
1.2795
1.27637
1.27315
1.26982
1.26636
1.26274
1.25895
1.25497
1.25077
1.24636
1.24172
1.23686
1.23177
1.22646
1.22097
1.21532
1.20956
1.20366
1.35322
1.35043
1.34762
1.34477
1.34187
1.33888
1.33579
1.33259
1.32925
1.32577
1.32211
1.31829
1.31427
1.31007
1.30568
1.30111
1.29637
1.29148
1.28648
1.2814
1.27621
1.41787
1.4153
1.41272
1.41011
1.40744
1.4047
1.40188
1.39896
1.39592
1.39275
1.38944
1.38598
1.38237
1.37861
1.37468
1.37062
1.36642
1.36211
1.35771
1.35327
1.34873
1.48251
1.48019
1.47786
1.47549
1.47308
1.47061
1.46807
1.46544
1.46271
1.45987
1.45692
1.45384
1.45063
1.4473
1.44384
1.44026
1.43658
1.43282
1.42899
1.42514
1.42121
1.54715
1.54509
1.54302
1.54092
1.53878
1.53659
1.53434
1.53202
1.52961
1.52711
1.52452
1.52182
1.51902
1.51611
1.5131
1.51001
1.50683
1.50359
1.50031
1.49701
1.49365
1.6118
1.61001
1.60821
1.60639
1.60453
1.60263
1.60069
1.59868
1.5966
1.59445
1.59222
1.58991
1.58751
1.58503
1.58247
1.57983
1.57714
1.57441
1.57164
1.56887
1.56604
1.67644
1.67494
1.67342
1.67188
1.67032
1.66873
1.66709
1.66541
1.66367
1.66187
1.66001
1.65808
1.65608
1.65402
1.6519
1.64972
1.6475
1.64525
1.64298
1.64071
1.63839
1.74109
1.73987
1.73865
1.73741
1.73615
1.73487
1.73355
1.73219
1.73079
1.72935